ITEM: TIMESTEP
0
ITEM: NUMBER OF ATOMS
3176
ITEM: BOX BOUNDS pp pp pp
0.0000000000000000e+00 4.8935453299999999e+01
0.0000000000000000e+00 8.4758691400000004e+01
0.0000000000000000e+00 1.5000000000000000e+01
ITEM: ATOMS id type x y z c_csym c_2[1] c_2[2] c_2[3] c_2[4] c_2[5] c_2[6] c_3 
74 1 0.247 9.821 3 6.02132 -102911 -192166 -57398 17264.7 32588.8 -1651.64 -7.41644 
75 1 0.924 8.576 3 6.01789 -144504 -157086 -96441.1 12934.1 16434.9 -2797.22 -7.41506 
76 1 0.185 7.366 3 6.02358 -139244 -135091 -77797 -10554.9 40700.2 -3734.12 -7.41545 
77 1 0.863 6.12 3 6.02659 -173416 -92172.4 -102572 632.942 31415.4 -4171.74 -7.41428 
78 1 0.123 4.91 3 6.02227 -135373 -147793 -100655 13512.1 44139.1 -3198.78 -7.41475 
79 1 0.801 3.665 3 6.02489 -132353 -151411 -113657 -5047.73 33858.6 -7184.43 -7.41354 
80 1 0.062 2.455 3 6.02592 -144663 -163482 -119308 218.786 29868.2 -1336.55 -7.41341 
81 1 0.74 1.21 3 6.02194 -165608 -135276 -123776 12710.1 14982.2 -9285.4 -7.41347 
82 1 0 0 3 6.02694 -135678 -115787 -125907 2416.79 20.5198 0.470455 -7.41286 
144 1 3.082 9.75 3 6.02196 -174282 -126818 -89401.4 10899.3 5845.47 -11143 -7.41527 
145 1 2.342 8.54 3 6.02658 -107709 -157938 -70180.1 18404 33972 -1536.47 -7.4156 
146 1 3.02 7.295 3 6.02283 -176894 -127763 -90796.7 11725.4 18243.2 -15572 -7.41535 
147 1 2.28 6.085 3 6.02659 -153036 -115741 -90035.1 7264.16 41372.6 -10598 -7.41482 
148 1 2.958 4.839 3 6.02479 -131172 -115442 -99019.4 -18322.4 28242.4 -23824.4 -7.41401 
149 1 2.219 3.629 3 6.02393 -117512 -164107 -109235 5846.59 36880.4 -18683.9 -7.41414 
150 1 2.897 2.384 3 6.02606 -167745 -137713 -110676 7976.73 22660.9 -31392.9 -7.41402 
151 1 2.157 1.174 3 6.02513 -161991 -156335 -120169 24428 14255.8 -23787.4 -7.41333 
213 1 4.499 9.714 3 6.02479 -153932 -155071 -69156.7 20739.4 24541.7 5846.03 -7.41604 
214 1 5.177 8.469 3 6.02527 -126418 -133137 -76448 5604.64 5865.05 -20705.7 -7.41553 
215 1 4.437 7.259 3 6.02327 -154427 -152294 -84198.9 23268.7 28856 -5754.8 -7.4155 
216 1 5.115 6.014 3 6.02258 -133440 -150617 -79545.6 -5333.8 16416.9 -28004.1 -7.41591 
217 1 4.376 4.804 3 6.02479 -113106 -132473 -98472.3 -3765.25 30933.9 -19116.7 -7.41408 
218 1 5.054 3.558 3 6.02659 -167727 -101773 -89091.4 -6394.33 20582.1 -37759.4 -7.41485 
219 1 4.314 2.348 3 6.02131 -157984 -144460 -108455 25294.4 19378.5 -30829.5 -7.41457 
220 1 4.992 1.103 3 6.02659 -127112 -172396 -100608 -17418.2 11499.5 -43270.4 -7.41423 
282 1 7.334 9.643 3 6.02582 -135747 -151290 -61346.6 -9725.88 2041.51 -26768.8 -7.41629 
283 1 6.595 8.433 3 6.02507 -111151 -168163 -84559.7 9118.21 16418.1 1537.38 -7.41531 
284 1 7.273 7.188 3 6.02196 -175536 -135471 -61132.5 4962.92 7623.91 -27506.1 -7.41667 
285 1 6.533 5.978 3 6.02658 -104804 -151135 -93847.1 23216.5 17597 -9358.38 -7.4147 
286 1 7.211 4.733 3 6.02283 -173187 -137589 -67116.1 5360.42 14938.3 -32311.7 -7.41647 
287 1 6.471 3.523 3 6.02659 -153386 -111183 -99240.4 13958.4 14026.5 -21425 -7.41447 
288 1 7.149 2.277 3 6.0238 -123823 -126344 -78906 -25343.5 15232.1 -37317.9 -7.41498 
289 1 6.41 1.067 3 6.02163 -122581 -173451 -97571.2 17637 754.551 -30954.6 -7.41483 
351 1 8.752 9.607 3 6.02393 -112730 -160209 -87547.2 9386.7 11946.3 808.101 -7.41527 
352 1 9.43 8.362 3 6.0261 -176605 -136649 -44377.2 2698.89 7978.38 -32289.4 -7.41761 
353 1 8.69 7.152 3 6.02479 -152668 -146082 -94353.1 24420.8 7425.61 -2985.15 -7.41479 
354 1 9.368 5.907 3 6.02527 -127343 -141543 -48709.8 1250.32 13526.4 -28238.7 -7.41674 
355 1 8.628 4.697 3 6.02327 -153937 -145528 -96717.9 26610.6 4852.04 -9172.94 -7.41493 
356 1 9.306 3.452 3 6.02258 -130304 -158156 -59481.6 -13007.4 17192.6 -26890.6 -7.41671 
357 1 8.567 2.242 3 6.02479 -114306 -128808 -92606.8 -879.674 -1780.97 -16299.6 -7.41439 
358 1 9.245 0.996 3 6.02466 -162902 -118597 -73804.5 -17796.9 14387.2 -25372.6 -7.41571 
1597 2 0.493 8.611 6.4 6.02679 -115198 -175633 -67232.9 -10337.8 35467.5 3250.66 -7.41615 
1598 2 0.555 6.156 6.4 6.02602 -152520 -120089 -89075.2 11818.8 43037.4 976.351 -7.41489 
1599 2 0.616 3.701 6.4 6.02099 -122074 -163728 -110691 21506.9 38530.4 -3834.78 -7.41367 
1600 2 0.678 1.245 6.4 6.02519 -164666 -150192 -123848 -8103.74 15701.2 -8135.56 -7.4135 
1601 2 0 0 6.4 6.02721 -140780 -148618 -126159 -11159.7 53.7859 45.6532 -7.41355 
1662 2 2.589 9.892 6.4 6.02327 -153447 -157571 -61113.5 -10223.9 27674.7 7084.22 -7.41667 
1663 2 1.911 8.647 6.4 6.02258 -136874 -142407 -93649.7 -2172.24 16916 -10572.4 -7.41503 
1664 2 2.65 7.437 6.4 6.02324 -109629 -139429 -79525.2 19661.8 32486.9 -107.679 -7.41501 
1665 2 1.972 6.191 6.4 6.02058 -181838 -124399 -98819.7 16816.3 32027.7 -17074.1 -7.41474 
1666 2 2.712 4.982 6.4 6.02213 -160654 -146452 -99026.6 23065.5 34652.4 -12699.6 -7.41471 
1667 2 2.034 3.736 6.4 6.02396 -126921 -118143 -109008 10308.4 34616.5 -22663.2 -7.41344 
1668 2 2.773 2.526 6.4 6.02105 -115227 -163667 -113761 5557.59 23170.4 -25604.4 -7.41411 
1669 2 2.095 1.281 6.4 6.02177 -167012 -136380 -119041 -17005.9 16085.4 -25120.6 -7.41357 
1670 2 2.835 0.071 6.4 6.02547 -106825 -122035 -117821 5753.94 -883.558 -32910.1 -7.41302 
1731 2 4.006 9.928 6.4 6.02283 -174689 -125753 -84506.7 -17819.6 6901.57 -15001.8 -7.41564 
1732 2 4.746 8.718 6.4 6.02658 -147670 -118866 -76359.1 6386.35 20849.8 5257.61 -7.41558 
1733 2 4.068 7.472 6.4 6.02283 -141921 -144390 -84178.5 28383.1 19441.3 -22127.8 -7.41511 
1734 2 4.807 6.263 6.4 6.02283 -119055 -166428 -90822.6 41384.8 22617 -7954.65 -7.41479 
1735 2 4.129 5.017 6.4 6.02658 -169492 -99248.9 -90067 -5653.83 29933.1 -30407.9 -7.41483 
1736 2 4.869 3.807 6.4 6.02283 -155722 -148478 -102376 -4703.53 19299.6 -25211.3 -7.41475 
1737 2 4.191 2.562 6.4 6.02658 -119465 -141024 -100508 -17680 24908.5 -36615.5 -7.41422 
1738 2 4.931 1.352 6.4 6.02332 -157941 -147938 -106264 -3755.78 5652.48 -39077.5 -7.41432 
1739 2 4.253 0.107 6.4 6.02335 -123360 -170600 -108843 -3547.29 4010.36 -37165.2 -7.41427 
1800 2 6.841 9.999 6.4 6.02527 -106924 -132082 -78393.5 21926.5 16457.8 8023.05 -7.41529 
1801 2 6.163 8.753 6.4 6.02213 -181070 -126196 -69042.4 10892.3 7179.25 -24189.9 -7.41625 
1802 2 6.903 7.544 6.4 6.02213 -156905 -144275 -89313.8 26386.9 12553.6 558.231 -7.41527 
1803 2 6.225 6.298 6.4 6.02396 -131016 -119106 -70009.9 7296.98 18319.5 -28664.7 -7.41548 
1804 2 6.964 5.088 6.4 6.02258 -113859 -164931 -96620.8 12175.9 10703.8 -12760.7 -7.41492 
1805 2 6.286 3.843 6.4 6.02327 -172004 -138874 -77818.3 -22501.9 23499.5 -33440.4 -7.41576 
1806 2 7.026 2.633 6.4 6.02658 -109102 -150471 -97446.1 -607.884 4184.93 -27359.5 -7.4143 
1807 2 6.348 1.388 6.4 6.02283 -165707 -142227 -89207.2 -25703.9 15652.6 -35062 -7.41532 
1808 2 7.088 0.178 6.4 6.02663 -159743 -121106 -91140 5183.64 -6714.35 -36624.7 -7.41484 
1869 2 8.259 10.034 6.4 6.02283 -140997 -147609 -54437.9 25411.2 2822.9 -32106.8 -7.41666 
1870 2 8.998 8.825 6.4 6.02283 -116067 -159350 -90992.2 41382.3 11059.3 1611.1 -7.41474 
1871 2 8.32 7.579 6.4 6.02658 -171502 -100729 -52896.5 -10044.9 9223.07 -29293.2 -7.41678 
1872 2 9.06 6.369 6.4 6.02283 -151627 -142043 -96376.1 -4126.43 6100.79 -3174.7 -7.41527 
1873 2 8.382 5.124 6.4 6.02582 -135326 -155230 -57409.1 -8477.08 17678.1 -27458 -7.41666 
1874 2 9.121 3.914 6.4 6.02299 -120311 -179323 -95538.2 741.04 1044.79 -11641.9 -7.41497 
1875 2 8.444 2.669 6.4 6.0205 -135775 -172331 -68530.6 -25415.4 19372.3 -25679.3 -7.41662 
1876 2 9.183 1.459 6.4 6.02612 -113777 -126979 -87563.1 26884.1 -6685.25 -20221.9 -7.41496 
1877 2 8.505 0.213 6.4 6.02466 -162345 -118289 -82184.8 -8094.61 12061.4 -22324.9 -7.41531 
420 1 11.587 9.536 3 6.02658 -171975 -106045 -25832.8 -8319.04 14128.8 -43830.2 -7.41841 
421 1 10.847 8.326 3 6.02283 -151894 -138221 -95591.8 25527.5 6137.91 -7241.73 -7.41523 
422 1 11.525 7.081 3 6.02582 -136555 -157863 -31582.9 -14130.5 18662.8 -33625.4 -7.41819 
423 1 10.786 5.871 3 6.02299 -118798 -175274 -97391.1 22697.4 697.625 -6519.44 -7.41482 
424 1 11.463 4.626 3 6.02299 -138692 -175476 -42782.6 -1680.15 22655.7 -24984.6 -7.41768 
425 1 10.724 3.416 3 6.02582 -115610 -159533 -92782.4 10133.6 -4951.82 -7682.21 -7.41492 
426 1 11.402 2.171 3 6.02283 -165978 -140767 -58439.1 1751.31 21708.4 -18789.2 -7.41713 
427 1 10.662 0.961 3 6.02663 -156949 -117278 -81772.6 17920.1 -12610.9 -11027.2 -7.41558 
489 1 13.004 9.501 3 6.02213 -157816 -136857 -93805.3 -5092.22 10758.9 -16530.8 -7.41491 
490 1 13.682 8.255 3 6.02396 -132195 -129596 -10861.8 -24455.8 24910.1 -44420.2 -7.41894 
491 1 12.943 7.045 3 6.02258 -111864 -157078 -96745.1 10300.1 3457.83 -14111.8 -7.41475 
492 1 13.621 5.8 3 6.02327 -173695 -144609 -24523.2 2083 30525.6 -33412.8 -7.4188 
493 1 12.881 4.59 3 6.02527 -105384 -143412 -93714.8 23842.5 -3340.26 -11355 -7.41438 
494 1 13.559 3.345 3 6.02479 -168747 -145576 -42499.2 1033.93 31184.8 -23680 -7.41752 
495 1 12.819 2.135 3 6.02608 -157607 -139629 -83920.7 24118.3 -11640.3 -10594.6 -7.41556 
496 1 13.497 0.89 3 6.02223 -117165 -138815 -62143.3 -737.518 24579.9 -16734.7 -7.4162 
558 1 15.839 9.429 3 6.02041 -143305 -164065 16983.6 -38501.9 25712.5 -49724.4 -7.42103 
559 1 15.1 8.22 3 6.02283 -117727 -158325 -93851.7 -20128.5 8021.54 -21549 -7.4145 
560 1 15.778 6.974 3 6.02658 -171196 -114760 -607.884 -7802.59 34959.1 -42540.5 -7.41979 
561 1 15.038 5.764 3 6.02283 -152003 -141803 -91666.2 25780.6 1748.35 -20656.9 -7.41517 
562 1 15.716 4.519 3 6.02658 -121117 -150454 -22167.7 1418.98 39426.4 -34319.3 -7.41858 
563 1 14.976 3.309 3 6.02196 -153174 -143385 -84231.7 23757.5 -6905.08 -19122.1 -7.41542 
564 1 15.654 2.064 3 6.02507 -123020 -164547 -44574 -10343.1 35043.9 -27376.2 -7.41753 
565 1 14.915 0.854 3 6.02525 -115617 -137394 -70470.1 -3590.74 -18196.9 -19675.8 -7.41548 
627 1 17.257 9.394 3 6.02527 -116428 -166400 -93778 15312.6 8181.89 -19839 -7.41455 
628 1 17.935 8.149 3 6.02283 -179094 -150975 29540.4 11277.1 31813.9 -42140.1 -7.4221 
629 1 17.195 6.939 3 6.02462 -149890 -110646 -88864.8 12275.8 4669.3 -24237.1 -7.41485 
630 1 17.873 5.693 3 6.02479 -129620 -135438 4830.36 -21014.4 41765 -39220.2 -7.41981 
631 1 17.134 4.483 3 6.02258 -110608 -163865 -80972.3 10610.3 -1463.65 -26131.2 -7.41578 
632 1 17.812 3.238 3 6.02327 -165821 -152170 -21265.2 6940.2 42796.4 -35902.8 -7.41896 
633 1 17.072 2.028 3 6.02641 -104721 -151026 -69346.1 19723.9 -12808.6 -27372.7 -7.41582 
634 1 17.75 0.783 3 6.02434 -161717 -160107 -45464.6 2520.56 32788.5 -33083.3 -7.41774 
695 1 19.414 10.568 3 6.02527 -107475 -151118 -100639 22932.1 3228.74 -9795.19 -7.41423 
697 1 19.352 8.113 3 6.0261 -155447 -149980 -90730.1 23806.5 1698.41 -17764 -7.41511 
699 1 19.291 5.658 3 6.02479 -110638 -134166 -78975.1 -5177.86 -242.931 -23596 -7.41504 
701 1 19.229 3.202 3 6.02283 -153608 -151233 -65849.4 22626.3 -7728.52 -27234.3 -7.4166 
703 1 19.167 0.747 3 6.02237 -157643 -165068 -50052.1 26025.5 -21819.1 -30489.5 -7.41733 
1938 2 11.094 10.106 6.4 6.02213 -156820 -137743 -90544.3 26475.2 15864.9 -6189.98 -7.41508 
1939 2 10.416 8.86 6.4 6.02396 -132362 -122171 -36421.9 5043.04 8652.49 -38150.1 -7.41737 
1940 2 11.155 7.65 6.4 6.02393 -110865 -158261 -96990.3 10481.2 8883.34 -4949.71 -7.41478 
1941 2 10.477 6.405 6.4 6.0261 -176686 -138438 -40269.7 -24458.6 15494.7 -29827.7 -7.41782 
1942 2 11.217 5.195 6.4 6.0261 -151713 -144241 -96810.5 -2553.39 2323.24 -5915.17 -7.41463 
1943 2 10.539 3.95 6.4 6.02338 -124715 -140111 -50684.1 -27878.4 20708.7 -22222.4 -7.41701 
1944 2 11.279 2.74 6.4 6.02306 -148568 -109679 -89491.8 9549.45 -5928.03 -9380.13 -7.41491 
1945 2 10.601 1.494 6.4 6.02266 -130550 -157716 -65909.2 18880.8 19294.2 -15941.4 -7.41599 
1946 2 11.34 0.285 6.4 6.02174 -125157 -169194 -75496.5 40552.9 -15235.1 -13836.3 -7.41581 
2007 2 12.511 10.141 6.4 6.02658 -173475 -107230 -15945.4 -8578.04 13934.5 -49630.1 -7.419 
2008 2 13.251 8.931 6.4 6.02283 -151599 -139546 -94770.8 -4284.96 14366.1 -13568.4 -7.41522 
2009 2 12.573 7.686 6.4 6.02582 -138315 -160334 -22083.8 -8108.94 19716.5 -40229.5 -7.41857 
2010 2 13.312 6.476 6.4 6.02506 -108692 -161732 -96284.5 10918.4 7932.06 -11934.4 -7.41463 
2011 2 12.634 5.231 6.4 6.02196 -173799 -139154 -33456.9 -28236.7 25038.6 -29710.5 -7.41862 
2012 2 13.374 4.021 6.4 6.0261 -96773.8 -111057 -91199 10473.7 -1186.84 -11372.1 -7.4144 
2013 2 12.696 2.775 6.4 6.02213 -173337 -139221 -50108.8 3574.35 25666.1 -20124 -7.41708 
2014 2 13.436 1.566 6.4 6.02213 -160311 -139155 -79363.1 27039.5 -13091 -12793.6 -7.41566 
2015 2 12.758 0.32 6.4 6.02305 -119035 -137574 -68356.3 8243.93 20339.1 -13394.6 -7.41562 
2076 2 15.346 10.212 6.4 6.02393 -114029 -161900 -92370.4 12643.1 16103.7 -17784.8 -7.41496 
2077 2 14.668 8.967 6.4 6.0261 -179560 -145942 1950.31 -20899.4 25649.9 -48454.7 -7.42042 
2078 2 15.408 7.757 6.4 6.0261 -151748 -146767 -93465.8 -2375.62 12041.7 -19764.9 -7.41471 
2079 2 14.73 6.512 6.4 6.02338 -126511 -145308 -12407.1 -23529 32069.3 -40874.6 -7.41955 
2080 2 15.47 5.302 6.4 6.02306 -145051 -111001 -89631.4 7378.29 4813.79 -20453.9 -7.41482 
2081 2 14.792 4.056 6.4 6.02283 -133435 -160005 -31462.6 19348.4 33892.5 -31938.9 -7.41821 
2082 2 15.531 2.847 6.4 6.02283 -117967 -159611 -80434.1 40704.2 -7262.34 -21035.2 -7.41525 
2083 2 14.853 1.601 6.4 6.02583 -158309 -110532 -52037.7 -11596.5 28764.7 -24168.7 -7.41684 
2084 2 15.593 0.391 6.4 6.02494 -159550 -154044 -65131.8 -11723.7 -22429.9 -23037.7 -7.41686 
2145 2 16.764 10.248 6.4 6.02582 -140724 -170345 32589.6 -2220.84 26856.5 -45447.2 -7.42181 
2146 2 17.503 9.038 6.4 6.02582 -114085 -167741 -93495 14281 10199.7 -19285.3 -7.41456 
2147 2 16.825 7.793 6.4 6.02196 -177233 -148077 15341.8 -22991.2 36341.6 -44568.3 -7.42157 
2148 2 17.565 6.583 6.4 6.02603 -99138.8 -117174 -87253.2 8586.91 6696.6 -25105.2 -7.41439 
2149 2 16.887 5.337 6.4 6.02213 -177740 -146827 -6572.7 7981.16 41314.6 -40920.8 -7.41965 
2150 2 17.627 4.128 6.4 6.02213 -156858 -144568 -77966 24495.7 -1723 -28742.9 -7.41577 
2151 2 16.949 2.882 6.4 6.02396 -121110 -133693 -30260.2 5900.62 38179.5 -35280.8 -7.41775 
2152 2 17.688 1.672 6.4 6.02489 -114133 -166692 -64567.9 7369.7 -16426.6 -30971.1 -7.41645 
2153 2 17.01 0.427 6.4 6.02613 -162074 -155570 -52142 -17245.6 27031.5 -30252.6 -7.41756 
2215 2 18.921 9.074 6.4 6.02393 -139268 -169160 47540.9 -3872.1 33284.2 -36236 -7.42321 
2217 2 18.983 6.618 6.4 6.02056 -145968 -183734 23405.6 12782.3 42965.2 -38609.7 -7.42158 
2219 2 19.044 4.163 6.4 6.02658 -163426 -119931 -3146.72 -6790.77 44906.7 -37685.2 -7.41967 
2221 2 19.106 1.708 6.4 6.02582 -123213 -171120 -28893.6 -3627.23 36754.2 -34183.4 -7.41819 
696 1 20.092 9.323 3 6.02479 -178748 -158513 61008.2 10519.1 23236.2 -30533.7 -7.42352 
698 1 20.03 6.868 3 6.02393 -134970 -173022 35066.1 -4135.86 36990.6 -32264.7 -7.42218 
700 1 19.969 4.412 3 6.02659 -165361 -120259 6408.58 -3012.79 44723.9 -33213 -7.42018 
702 1 19.907 1.957 3 6.02656 -113818 -159377 -21819.8 8796.92 40602.3 -33874.9 -7.41827 
764 1 22.249 10.497 3 6.02658 -131790 -160645 87101.6 12237.3 14767.4 -14394.9 -7.42457 
765 1 21.509 9.287 3 6.02196 -156273 -150527 -99480.8 21905.2 -4556.6 -6677.75 -7.41469 
766 1 22.187 8.042 3 6.02506 -136860 -178017 62734.7 -3961.82 29009.1 -16699.6 -7.42335 
767 1 21.448 6.832 3 6.02582 -115959 -172405 -82143.5 4625.64 -3931.05 -12597.3 -7.41525 
768 1 22.126 5.587 3 6.02283 -171288 -156651 32961.5 13272 41492 -19210.7 -7.42234 
769 1 21.386 4.377 3 6.02659 -150893 -119447 -65541.3 6880.36 -6268.19 -16904.5 -7.41621 
770 1 22.064 3.131 3 6.0261 -121223 -140929 2219.43 -15604.4 44163.2 -21860.8 -7.41973 
771 1 21.325 1.921 3 6.01897 -120299 -189067 -48673.3 18170.5 -16443 -20253 -7.41774 
772 1 22.002 0.676 3 6.02266 -126691 -204113 -24607.5 3539.32 34582.7 -24201.9 -7.41874 
833 1 23.667 10.461 3 6.0205 -123512 -178475 -111453 16073.4 -7978.2 315.649 -7.4144 
834 1 24.344 9.216 3 6.02299 -144285 -192775 81292.5 11450.9 22986.6 -395.753 -7.42478 
835 1 23.605 8.006 3 6.02582 -117065 -169666 -91343.4 616.807 -8259.96 -756.07 -7.41499 
836 1 24.283 6.761 3 6.02479 -174109 -160089 53252.1 12984.8 36864.6 -342.253 -7.42313 
837 1 23.543 5.551 3 6.0261 -155536 -156373 -70546.1 15448.1 -7356.09 -1673.98 -7.41629 
838 1 24.221 4.306 3 6.02393 -127674 -177445 21670.3 -259.837 44543.4 -2106.32 -7.42127 
839 1 23.482 3.096 3 6.02479 -111028 -142069 -52256.9 -12087.4 -12746.1 -3051.08 -7.41658 
840 1 24.16 1.85 3 6.0222 -156096 -126654 -7457.24 2364.94 40264.7 -4873.91 -7.4193 
841 1 23.42 0.64 3 6.0211 -109969 -171858 -32439.9 22875.4 -25869.7 -5267.22 -7.41811 
902 1 26.502 10.39 3 6.02306 -172934 -124663 86946.4 2981.34 20283.1 12316.9 -7.42483 
903 1 25.762 9.18 3 6.02338 -108969 -150307 -101034 12051.4 -7979.32 5459.12 -7.41441 
904 1 26.44 7.935 3 6.0261 -176499 -160741 62826.4 14654.5 33865.9 15920.6 -7.42353 
905 1 25.7 6.725 3 6.02479 -155881 -154805 -80514.5 10538 -7081.58 10423.1 -7.41576 
906 1 26.378 5.48 3 6.02582 -131471 -178980 33115.8 -662.405 43891.1 17627.5 -7.4216 
907 1 25.639 4.27 3 6.02582 -114784 -177216 -61090.3 -3961.79 -9294.57 13713.8 -7.41643 
908 1 26.317 3.025 3 6.02283 -164101 -157535 3068.19 17137.7 43963.8 16294 -7.42061 
909 1 25.577 1.815 3 6.02658 -150523 -126513 -42581.6 733.039 -19530 14452.4 -7.41722 
910 1 26.255 0.569 3 6.02454 -106917 -137674 -23131.8 -3942.59 32943 13273.9 -7.41814 
971 1 27.919 10.355 3 6.02213 -160884 -146659 -104919 -24426.8 -1911.26 6795.3 -7.41416 
972 1 28.597 9.109 3 6.0261 -123182 -125616 60904.2 2160.94 31608.5 28066.8 -7.42306 
973 1 27.857 7.899 3 6.02196 -154479 -150259 -89795.7 8612.87 -2447.81 16000.7 -7.41558 
974 1 28.535 6.654 3 6.02507 -132574 -176717 35273.3 2689.91 42600.7 31783.2 -7.42203 
975 1 27.796 5.444 3 6.02582 -114428 -174183 -73455 -8216.51 -3969.67 23323.8 -7.41573 
976 1 28.474 4.199 3 6.02479 -168542 -157027 6658.33 17021.4 45869.8 32213.3 -7.42051 
977 1 27.734 2.989 3 6.0261 -153831 -156898 -56823 8953.14 -12125.8 27724.4 -7.417 
978 1 28.412 1.744 3 6.02393 -120950 -174019 -20477.9 3871.7 38226.5 29650 -7.41889 
979 1 27.673 0.534 3 6.0249 -110458 -152637 -38412 -11680.9 -26961.5 28798.4 -7.41776 
2214 2 19.599 10.319 6.4 6.0261 -156012 -149453 -100493 -2291.4 3352.01 -10456.8 -7.4146 
2216 2 19.66 7.864 6.4 6.02048 -114960 -151041 -89685.6 9819.17 2329.03 -19838.6 -7.41487 
2218 2 19.722 5.409 6.4 6.02283 -118124 -165962 -76645.9 38898.7 -835.056 -27353 -7.41573 
2220 2 19.784 2.953 6.4 6.02283 -153269 -151346 -62426.5 -9453.32 -10628.6 -31933.3 -7.41703 
2222 2 19.845 0.498 6.4 6.02372 -111480 -151551 -44890.2 18140.1 -26465.1 -33640 -7.41692 
2283 2 21.016 10.355 6.4 6.02283 -179495 -154422 77591.5 -16612 23608.7 -20968.3 -7.42502 
2284 2 21.756 9.145 6.4 6.02658 -150409 -118637 -99199.1 5173.67 -4758.64 -9483.39 -7.41418 
2285 2 21.078 7.899 6.4 6.02224 -133768 -155841 54285.4 13645.1 36558.9 -25882.5 -7.42272 
2286 2 21.818 6.69 6.4 6.01795 -158972 -150579 -81062.6 20755.6 -4495.38 -17147.7 -7.41571 
2287 2 21.14 5.444 6.4 6.02396 -126025 -143218 25582.8 11152.2 45141.3 -28229.8 -7.4209 
2288 2 21.879 4.234 6.4 6.02393 -114070 -173256 -63330.2 4204.01 -8001.1 -22614.8 -7.41665 
2289 2 21.201 2.989 6.4 6.0261 -164693 -158337 -3208.9 -16422.5 43700.2 -27151.3 -7.41992 
2290 2 21.941 1.779 6.4 6.02612 -154077 -159522 -45847.5 -10459 -19342.2 -24829.9 -7.41755 
2291 2 21.263 0.534 6.4 6.02546 -121272 -183595 -28851.7 2341.34 31817.7 -23854.5 -7.41858 
2352 2 23.851 10.426 6.4 6.02396 -109303 -133570 -111600 14053.5 -8166.32 -2158.29 -7.41355 
2353 2 23.173 9.18 6.4 6.01795 -181916 -155017 78875.7 14633.7 25461.2 -9448.98 -7.42466 
2354 2 23.913 7.971 6.4 6.02224 -111152 -151361 -91222.5 18964 -8418.81 -5275.78 -7.41481 
2355 2 23.235 6.725 6.4 6.02658 -168320 -127581 51013.7 -2527.09 38672.8 -11628.5 -7.42249 
2356 2 23.975 5.515 6.4 6.02283 -155198 -153840 -70203 -14530.6 -7720.8 -7904.94 -7.41669 
2357 2 23.297 4.27 6.4 6.02582 -127938 -179883 19992.1 1140.79 45114 -11162.4 -7.42082 
2358 2 24.036 3.06 6.4 6.02582 -114585 -178616 -51345.1 2525.97 -13414.7 -8766.85 -7.41694 
2359 2 23.358 1.815 6.4 6.02283 -160191 -158973 -8633.24 -16511.4 39805 -8545.67 -7.41992 
2360 2 24.098 0.605 6.4 6.02663 -154039 -138081 -31775.3 -7481.55 -26670.3 -7728.55 -7.41784 
2421 2 25.269 10.461 6.4 6.02224 -133732 -157076 91879.5 18272.9 15277.4 5060.37 -7.42505 
2422 2 26.009 9.252 6.4 6.01795 -160862 -146306 -101219 10806.5 -7775.72 2128.75 -7.4146 
2423 2 25.331 8.006 6.4 6.02396 -128435 -145216 67284.8 13064.7 29518 5702.6 -7.42347 
2424 2 26.07 6.796 6.4 6.02393 -116110 -170590 -81012.4 -3830.19 -6634.92 5029.48 -7.4157 
2425 2 25.392 5.551 6.4 6.0261 -171224 -160486 37010.9 -12465.9 41681.4 7249.21 -7.42218 
2426 2 26.132 4.341 6.4 6.0261 -154790 -157395 -62234.8 -16476.5 -8253.75 7495.84 -7.41674 
2427 2 25.454 3.096 6.4 6.02393 -124192 -177515 6033.51 833.454 43935.7 10028.5 -7.42038 
2428 2 26.193 1.886 6.4 6.02396 -107766 -143358 -44059.5 9853.62 -17985.9 10053.3 -7.41729 
2429 2 25.515 0.64 6.4 6.02144 -156035 -136110 -20833.8 4250.99 34368.6 12836.3 -7.41864 
2490 2 28.104 10.533 6.4 6.02224 -114381 -146251 -105384 6784.62 -1593.06 5374.64 -7.41377 
2491 2 27.426 9.287 6.4 6.02658 -172634 -125746 71975.2 253.793 21934.1 20600.8 -7.42377 
2492 2 28.166 8.077 6.4 6.02283 -155926 -148429 -90639.4 -23961.6 -2368.23 12655.1 -7.41551 
2493 2 27.488 6.832 6.4 6.02582 -134741 -177693 44388.4 4747.88 36261.2 23224.8 -7.4223 
2494 2 28.227 5.622 6.4 6.02582 -114955 -172820 -75151.1 -4994.42 -2918.79 18380.4 -7.41561 
2495 2 27.549 4.377 6.4 6.02283 -168165 -156022 14288.6 -12514.4 44529.9 25612.7 -7.42128 
2496 2 28.289 3.167 6.4 6.02658 -148331 -123097 -59800.2 -7337.1 -9409.16 22419.6 -7.41628 
2497 2 27.611 1.921 6.4 6.02283 -115411 -158243 -14603.7 20668.9 40757.8 27771 -7.41887 
2498 2 28.351 0.712 6.4 6.01874 -160265 -163466 -42590.5 6652.96 -23249.9 26087.4 -7.418 
1040 1 30.754 10.283 3 6.02283 -145010 -168694 49073.1 -28306.9 27591.7 38369.3 -7.42273 
1041 1 30.015 9.074 3 6.02283 -116939 -165680 -94673.9 -41205.7 5376.05 16925.8 -7.41471 
1042 1 30.693 7.828 3 6.02306 -171375 -119793 29238 7460.65 38426.1 40735.3 -7.42166 
1043 1 29.953 6.618 3 6.02338 -103336 -151386 -84512.2 4247.21 3396.04 25080.1 -7.41546 
1044 1 30.631 5.373 3 6.0261 -172679 -154508 4591.95 19589 44400 40225.3 -7.42028 
1045 1 29.891 4.163 3 6.02479 -152913 -152126 -72343.2 5839.48 -3546.63 30520.1 -7.41612 
1046 1 30.569 2.918 3 6.02582 -126103 -171238 -21229 4143.15 41086.7 36929.6 -7.41856 
1047 1 29.83 1.708 3 6.02658 -115640 -170535 -57581.3 -8253.43 -17598.9 33441.9 -7.41662 
1048 1 30.508 0.463 3 6.02192 -154034 -127805 -44103.8 33017.5 28881.7 32681.4 -7.41757 
1109 1 32.172 10.248 3 6.02396 -109151 -132664 -93846.1 -26749.2 13112.7 16972.3 -7.41421 
1110 1 32.85 9.002 3 6.01995 -183484 -144412 16813.9 -9529.29 30235.8 47098.1 -7.42141 
1111 1 32.11 7.793 3 6.02213 -156948 -144893 -91589 -27148.9 10320.1 22109.8 -7.41481 
1112 1 32.788 6.547 3 6.02603 -123616 -117057 -1321.01 10088.7 37520.8 42943.1 -7.41919 
1113 1 32.048 5.337 3 6.02196 -151017 -145022 -85306.6 6855.85 4189.45 25494.3 -7.41575 
1114 1 32.726 4.092 3 6.02582 -130741 -166481 -23225.2 6718.56 38858.2 36649 -7.41849 
1115 1 31.987 2.882 3 6.02582 -113360 -166738 -75101.1 -10409.5 -7891.43 27501.2 -7.41555 
1116 1 32.665 1.637 3 6.02477 -164627 -144877 -45482.3 22230.5 31967.5 30237.8 -7.41765 
1117 1 31.925 0.427 3 6.02741 -154458 -123278 -59097 -5740.96 -24147.5 29473.1 -7.41649 
1178 1 35.007 10.177 3 6.02283 -178322 -144307 -703.671 21554.8 19272.1 51520.3 -7.42049 
1179 1 34.267 8.967 3 6.02666 -153358 -144322 -93965.5 6628.48 14689.4 17687.5 -7.41489 
1180 1 34.945 7.722 3 6.02144 -139868 -158973 -10730 11718.9 26188.6 43779.2 -7.4196 
1181 1 34.206 6.512 3 6.02048 -113815 -140883 -93576.5 -10386.5 8965.62 17551.7 -7.4146 
1182 1 34.883 5.266 3 6.02048 -137016 -140828 -25966.5 11047.7 30828.2 34129.3 -7.4184 
1183 1 34.144 4.056 3 6.02393 -112213 -157796 -87943.3 -9353.71 -641.451 17315.1 -7.41544 
1184 1 34.822 2.811 3 6.0261 -168351 -143099 -44687.6 24434.6 29999 24859.8 -7.41761 
1185 1 34.082 1.601 3 6.02612 -155193 -144708 -75724.3 3504.74 -14251.5 18344.3 -7.41585 
1186 1 34.76 0.356 3 6.02546 -123813 -169645 -64372.9 4517.16 22781.1 18279.7 -7.41651 
1247 1 36.424 10.141 3 6.02479 -152836 -142218 -91709.3 2154.6 16945.4 11845.3 -7.41501 
1248 1 37.102 8.896 3 6.02582 -138781 -158921 -24639.2 6916.73 13645.5 43145.3 -7.41841 
1249 1 36.363 7.686 3 6.02582 -111142 -160881 -96782.9 -12711.9 10546.2 10029.7 -7.41439 
1250 1 37.041 6.441 3 6.02196 -175844 -137963 -31632.8 27814.5 19888.3 32983.5 -7.41872 
1251 1 36.301 5.231 3 6.02603 -100270 -108086 -95441.4 -8763.79 3197.32 8946.26 -7.41397 
1252 1 36.979 3.985 3 6.02658 -168579 -106600 -44382.8 14165.3 23915.6 23081.9 -7.41707 
1253 1 36.239 2.775 3 6.02283 -154155 -139495 -87445.7 4252.67 -6691.79 9942.03 -7.41566 
1254 1 36.917 1.53 3 6.02582 -125692 -161656 -61368.4 10137.2 22113 15126.3 -7.41625 
1255 1 36.178 0.32 3 6.02371 -121552 -173586 -72763.6 -8375.76 -17951.7 13087.1 -7.4157 
1317 1 38.52 8.86 3 6.02582 -111510 -161673 -93619.9 -12298.7 11527.8 2777.34 -7.41458 
1319 1 38.458 6.405 3 6.0261 -151187 -144655 -97366.4 2739.97 5362.75 3835.03 -7.41461 
1320 1 39.136 5.16 3 6.02338 -124909 -139107 -48592.2 25276.2 17697.3 25827.6 -7.41733 
1321 1 38.396 3.95 3 6.02299 -149164 -107929 -94506.7 -9402.81 -1202.27 7980.73 -7.41468 
1322 1 39.074 2.704 3 6.02479 -123857 -124934 -61162.8 124.546 19999.3 20469 -7.41617 
1323 1 38.335 1.494 3 6.0224 -117200 -161180 -84604 -12894.4 -9475.2 13492.5 -7.41543 
1324 1 39.013 0.249 3 6.02606 -165743 -153592 -76198.9 20141.2 14945.6 15465 -7.41593 
2559 2 29.522 10.568 6.4 6.02048 -140521 -155459 64446.3 2928.44 17607.5 34061.2 -7.42365 
2560 2 30.261 9.358 6.4 6.02393 -116054 -162990 -95251.6 -12114 4425.76 16237.8 -7.41505 
2561 2 29.583 8.113 6.4 6.0261 -177443 -155650 43097.2 -8925.28 30934.2 35610 -7.42271 
2562 2 30.323 6.903 6.4 6.0261 -154303 -149514 -85994.8 -23532.1 2630.42 22732.9 -7.41535 
2563 2 29.645 5.658 6.4 6.02393 -132434 -171655 15468 5275.72 42224 35890.4 -7.42106 
2564 2 30.384 4.448 6.4 6.02396 -107885 -135278 -75277.3 5646.62 -2248.89 26634.3 -7.41522 
2565 2 29.706 3.202 6.4 6.01795 -169465 -151066 -12522 20500.2 44052.1 35413.9 -7.41943 
2566 2 30.446 1.993 6.4 6.02224 -111200 -149767 -62182.2 8861.48 -13587.4 29408.2 -7.41601 
2567 2 29.768 0.747 6.4 6.02466 -155497 -132359 -37664.8 9694.13 34012.5 34774.5 -7.41749 
2629 2 31.679 9.394 6.4 6.02582 -139544 -171542 32390.8 7971.1 25952.8 45907.6 -7.4218 
2630 2 32.418 8.184 6.4 6.02582 -114055 -164936 -92402.8 -9547.74 7355.12 22770.6 -7.41459 
2631 2 31.74 6.939 6.4 6.02283 -175735 -148594 11516.4 -7751.5 37078.7 42173.6 -7.4213 
2632 2 32.48 5.729 6.4 6.02658 -146994 -111273 -87680.7 -11422.2 2332.22 24475.7 -7.41491 
2633 2 31.802 4.483 6.4 6.02283 -134981 -163407 -13277 39409.5 42730.5 37107.7 -7.41927 
2634 2 32.541 3.274 6.4 6.02056 -124348 -174755 -78918.2 8771.39 -6408.76 24624 -7.4157 
2635 2 31.864 2.028 6.4 6.01974 -123403 -149664 -37757.4 8261.05 37993.7 32572 -7.41766 
2636 2 32.603 0.818 6.4 6.02371 -119391 -171748 -64612.9 -14629 -19290.3 26046.8 -7.4167 
2698 2 34.514 9.465 6.4 6.0261 -153969 -142775 -93484.5 -25005.8 11030 20291.7 -7.41492 
2699 2 33.836 8.22 6.4 6.02393 -137976 -163819 1663.88 9337.8 29088 46385.3 -7.42038 
2700 2 34.575 7.01 6.4 6.02396 -106585 -127117 -94831.5 3384.93 4624.63 19232.8 -7.41415 
2701 2 33.897 5.764 6.4 6.02213 -178499 -142148 -15744.4 26947.5 36059.8 36952.1 -7.41933 
2702 2 34.637 4.555 6.4 6.02213 -157095 -139209 -90752.1 5914.3 -2611.67 16845.9 -7.41487 
2703 2 33.959 3.309 6.4 6.02603 -114760 -114110 -36648 9407.25 36352.1 28067.6 -7.41718 
2704 2 34.699 2.099 6.4 6.02337 -154621 -140711 -80190.4 -26400.1 -12223.6 15770.1 -7.41598 
2705 2 34.021 0.854 6.4 6.02659 -123635 -171745 -58054.2 16586 28009.9 21725.7 -7.41686 
2767 2 35.931 9.501 6.4 6.02283 -178251 -140339 -12724.2 -5965.55 19314.4 48202.7 -7.41989 
2768 2 36.671 8.291 6.4 6.02658 -146450 -106554 -96228.2 -11849.7 6410.3 12792 -7.41448 
2769 2 35.993 7.045 6.4 6.02283 -140932 -157869 -21975.3 43539.5 25110.3 37111.2 -7.41856 
2770 2 36.732 5.836 6.4 6.02283 -114403 -156195 -96802.8 19450.9 -51.589 10119.6 -7.41462 
2771 2 36.054 4.59 6.4 6.02306 -165633 -109526 -36266 10576.2 28676.6 26628.3 -7.41777 
2772 2 36.794 3.38 6.4 6.02338 -104671 -141399 -90815.1 -24800.4 -6940.82 8756.48 -7.41514 
2773 2 36.116 2.135 6.4 6.02615 -166857 -143300 -54548.7 -949.823 26411 18500.1 -7.41691 
2774 2 36.856 0.925 6.4 6.02721 -154725 -118900 -78328.9 -13964 -15172.8 10267.5 -7.41548 
2836 2 38.766 9.572 6.4 6.02396 -107134 -126884 -91114.3 4104.82 10440.5 4657.07 -7.41439 
2837 2 38.088 8.326 6.4 6.02213 -181449 -134658 -33516.1 27318.3 13211.7 36527.4 -7.41824 
2838 2 38.828 7.117 6.4 6.02213 -156565 -139477 -96612.4 5187.04 3983.85 4946.48 -7.41464 
2839 2 38.15 5.871 6.4 6.0261 -119135 -109322 -40295.2 13140.3 18114.3 28360.1 -7.41713 
2840 2 38.89 4.661 6.4 6.02196 -153067 -140544 -96280 -28126.2 -413.123 6886.99 -7.41528 
2841 2 38.212 3.416 6.4 6.02506 -127711 -161948 -52897.8 14082.6 20580.1 22605.6 -7.41692 
2842 2 38.951 2.206 6.4 6.02506 -117478 -163361 -89220.1 -10495.1 -6752.3 10673 -7.41485 
2843 2 38.273 0.961 6.4 6.02434 -166428 -151672 -69091.7 4278.25 17392.7 18404.7 -7.41652 
1316 1 39.259 10.07 3 6.02582 -137484 -154425 -42504.9 4804.53 4932.47 38841.3 -7.41735 
1318 1 39.198 7.615 3 6.02479 -177518 -136654 -42679.7 23130.7 10310.4 32143.5 -7.41768 
1385 1 40.677 10.034 3 6.02393 -112099 -162204 -83836.1 -9185.58 14969.1 -4763.79 -7.41546 
1386 1 41.355 8.789 3 6.0261 -176930 -132552 -58442.5 20112.8 5390.66 28240.9 -7.41681 
1387 1 40.615 7.579 3 6.02479 -151720 -145911 -92650 2763.98 9163.67 -467.984 -7.41509 
1388 1 41.293 6.334 3 6.02582 -136741 -154776 -59101.8 6462.97 14798.7 28265 -7.41637 
1389 1 40.554 5.124 3 6.02506 -110870 -166208 -96739.1 -12634.5 5484.96 8716.84 -7.41475 
1390 1 41.232 3.879 3 6.02196 -171835 -137164 -66987.1 26480.5 20465.6 29078.6 -7.41669 