ITEM: TIMESTEP
0
ITEM: NUMBER OF ATOMS
1016
ITEM: BOX BOUNDS pp pp pp
0.0000000000000000e+00 2.7677714300000002e+01
0.0000000000000000e+00 4.7939207500000002e+01
0.0000000000000000e+00 1.5000000000000000e+01
ITEM: ATOMS id type x y z c_csym c_2[1] c_2[2] c_2[3] c_2[4] c_2[5] c_2[6] c_3 
38 1 1.199 11.01 3 6.02272 -173652 -107745 -89575.2 19613.9 18945.4 -7551.46 -7.41492 
39 1 0.436 9.814 3 6.02103 -125002 -143660 -717.454 18994.6 53815.2 3344.31 -7.42037 
40 1 1.09 8.556 3 6.02647 -179372 -134426 -94917.1 -924.264 15019.5 -9712.84 -7.41478 
41 1 0.327 7.361 3 6.0243 -120383 -139415 -32795.1 -16873.6 36114.5 3574.66 -7.4176 
42 1 0.981 6.102 3 6.02073 -175130 -102228 -99726.8 -16241.5 5961.93 -6773.24 -7.41469 
43 1 0.218 4.907 3 6.0278 -124256 -170076 -61608.4 1615.56 36315.5 -4539.14 -7.41652 
44 1 0.872 3.649 3 6.02667 -182616 -141166 -103558 -1323.82 26461.5 -7376.35 -7.41488 
45 1 0.109 2.454 3 6.02083 -122513 -127494 -105598 -14451.8 41814.3 -4840.37 -7.41406 
46 1 0.763 1.195 3 6.02418 -169474 -113345 -120910 -19826.2 22028.7 -15297.9 -7.41303 
47 1 0 0 3 6.02632 -131111 -144856 -127550 -5871.35 -31.2692 -21.9414 -7.4132 
78 1 2.615 10.947 3 6.02647 -179413 -169212 13597.8 4044.73 51753.1 18135.7 -7.42078 
79 1 3.269 9.689 3 6.02199 -124456 -110495 -73146.8 19527.4 19331 -17986.3 -7.41528 
80 1 2.506 8.493 3 6.02511 -156353 -137540 -32468.2 24511.1 44418.8 18546 -7.41814 
81 1 3.16 7.235 3 6.02697 -131485 -137899 -78298.9 -3376.87 5816.23 -20939 -7.41566 
82 1 2.397 6.04 3 6.02073 -155970 -132124 -59322.4 -7017.66 27185 9087.08 -7.41632 
83 1 3.051 4.781 3 6.02424 -130676 -109065 -74425.4 -25663.8 4679.01 -22071.2 -7.41506 
84 1 2.288 3.586 3 6.02654 -164477 -161704 -89847.7 9322.06 34593.8 -11556.6 -7.41527 
85 1 2.942 2.328 3 6.02203 -122520 -119096 -83245.8 9489.46 17968.2 -36083.2 -7.41484 
86 1 2.179 1.132 3 6.02283 -155392 -119905 -113867 24451.5 19014.5 -29388.1 -7.41379 
117 1 5.448 10.821 3 6.02353 -153510 -175204 -41835.8 3569.44 5292.96 -25944 -7.41814 
118 1 4.686 9.626 3 6.01889 -134909 -153276 -33168.8 -13976.1 49146.8 15393 -7.41832 
119 1 5.339 8.367 3 6.01889 -142729 -141084 -45299.9 -22773.4 13012 -40598.4 -7.41761 
120 1 4.577 7.172 3 6.02353 -132149 -185387 -69069.3 4387.27 27677.2 8085.82 -7.41669 
121 1 5.23 5.914 3 6.01899 -139743 -146468 -45582.2 7040.38 6417.44 -36195.7 -7.41773 
122 1 4.468 4.718 3 6.01899 -117716 -156749 -92119.5 25304.9 12486.7 -175.53 -7.41537 
123 1 5.121 3.46 3 6.02354 -149681 -181582 -45442.7 -16635.6 11768.8 -29156 -7.41744 
124 1 4.359 2.265 3 6.02354 -131621 -187923 -102832 8464.97 9161.87 -14142.4 -7.41514 
125 1 5.012 1.007 3 6.01792 -127869 -150430 -68039 5835.68 15079.4 -30222.7 -7.41613 
155 1 7.628 11.953 3 6.02317 -177964 -120110 -12650.5 -8633.83 -27151.6 -26760.6 -7.41889 
156 1 6.865 10.758 3 6.02667 -136126 -151393 -36928.8 9793.87 32440.4 9574.88 -7.41768 
157 1 7.519 9.5 3 6.02272 -176659 -125492 349.954 23840.2 1077.9 -51136 -7.41981 
158 1 6.756 8.304 3 6.02199 -114045 -123863 -68031.6 29114.8 32616.7 -7958.94 -7.4157 
159 1 7.41 7.046 3 6.02647 -186751 -157355 -7851.58 -4668.67 13937.3 -56705.5 -7.4197 
160 1 6.647 5.851 3 6.02624 -115231 -154098 -91892 8452.63 12259.5 -12186.3 -7.41449 
161 1 7.301 4.593 3 6.02181 -174296 -125779 -19411.9 7862.08 22310.4 -41026.8 -7.41892 
162 1 6.538 3.397 3 6.02203 -102608 -122550 -100987 28217.1 -862.588 -9669.45 -7.41424 
163 1 7.192 2.139 3 6.02652 -176931 -156068 -40279.5 -13605.7 28716.8 -23331.8 -7.41764 
164 1 6.429 0.944 3 6.02572 -118508 -147230 -86213 6039.47 -12481.6 -9973.96 -7.41489 
194 1 9.044 11.89 3 6.02182 -174598 -117921 -54985.1 28106.7 1338.9 11645.6 -7.41682 
196 1 8.935 9.437 3 6.02647 -177579 -154602 -71915.3 11362.2 20600.7 -4609.92 -7.41608 
198 1 8.826 6.983 3 6.02272 -156165 -126267 -88587.8 32590.7 16199.3 -16249.1 -7.41505 
200 1 8.717 4.53 3 6.02317 -154957 -121721 -92956.7 -5202.13 4887.8 -21816.4 -7.41435 
202 1 8.608 2.076 3 6.02667 -159232 -155160 -84455.9 11357.4 -6679.94 -20512 -7.41555 
511 2 0.218 11.073 6.4 6.02211 -130341 -147571 26866.2 16235.7 53304.1 6424.34 -7.42159 
512 2 0.327 8.619 6.4 6.02748 -172964 -179866 -19596.4 437.173 46702.9 1151.57 -7.41933 
513 2 0.436 6.165 6.4 6.02281 -157294 -149361 -45316.2 -18274.2 31151.9 4295.75 -7.41706 
514 2 0.545 3.712 6.4 6.02691 -169604 -174708 -83257.6 2783.02 40179.7 2528.45 -7.41525 
515 2 0.654 1.258 6.4 6.0238 -158209 -130117 -120685 -12085.7 24346.4 -11579.1 -7.41355 
516 2 0 0 6.4 6.02743 -130242 -145563 -127536 -533.005 36.4527 -34.2303 -7.41322 
546 2 1.635 11.135 6.4 6.01732 -146562 -136047 -88648.8 22325.8 22177.2 -5826.63 -7.41502 
547 2 2.397 9.94 6.4 6.02505 -130446 -185546 -7828.01 18290 56089.2 16291.6 -7.42031 
548 2 1.743 8.682 6.4 6.02276 -176891 -135408 -91943.4 697.841 16722.5 -4533.69 -7.4153 
549 2 2.506 7.487 6.4 6.02033 -105611 -134908 -45568.8 20184.8 34594.1 12577.1 -7.41725 
550 2 1.852 6.228 6.4 6.02236 -175890 -103242 -92182.4 16219.9 6418.37 -10735.5 -7.41455 
551 2 2.615 5.033 6.4 6.02505 -110053 -165419 -74410.3 9383.19 21423.4 6946.88 -7.41606 
552 2 1.961 3.775 6.4 6.02227 -175393 -111541 -90069.1 -21707 27202 -24245.8 -7.41493 
553 2 2.724 2.579 6.4 6.02031 -100912 -134153 -103675 -6526.41 19667 -19304.7 -7.41451 
554 2 2.07 1.321 6.4 6.02569 -177435 -150258 -105441 -4486.59 24969.3 -33871.5 -7.41406 
555 2 2.833 0.126 6.4 6.02551 -117719 -150900 -105470 18100.7 -3086.98 -43074.3 -7.41417 
585 2 4.468 11.261 6.4 6.02272 -170022 -132138 211.786 -10557.7 44937.4 24580.7 -7.4198 
586 2 3.814 10.003 6.4 6.02601 -133640 -141752 -68187.3 10339.5 23234.7 -24247.3 -7.41623 
587 2 4.577 8.808 6.4 6.02317 -163181 -126279 -45298.7 25636.8 41596.2 8980.78 -7.41694 
588 2 3.923 7.549 6.4 6.02033 -123008 -108394 -68961.1 15867.3 6848.58 -27954.7 -7.41601 
589 2 4.686 6.354 6.4 6.02667 -158005 -159191 -78368.6 6708.68 21015.9 5425.91 -7.41589 
590 2 4.032 5.096 6.4 6.02662 -130616 -145561 -59324.5 -5211.72 5763 -28035 -7.41681 
591 2 4.795 3.901 6.4 6.02073 -153107 -124241 -99664.4 24265.7 8749.71 -1822.23 -7.41469 
592 2 4.141 2.642 6.4 6.02424 -124704 -116921 -61618.5 10210.6 22213.5 -29208.5 -7.41584 
593 2 4.904 1.447 6.4 6.02381 -163036 -157774 -97084.5 13153.7 -2397.07 -20965.4 -7.41522 
594 2 4.25 0.189 6.4 6.02588 -128875 -165604 -86967.8 -20.5664 11661.4 -26159.3 -7.4155 
624 2 5.884 11.324 6.4 6.02647 -184037 -152275 -36997 11785.9 7937.46 -32780.2 -7.4178 
625 2 6.647 10.129 6.4 6.02624 -130622 -156932 -41819.9 15553.7 25066 8441.46 -7.41712 
626 2 5.993 8.871 6.4 6.02181 -173843 -120017 -32980.7 -14634.5 11216 -50274 -7.41792 
627 2 6.756 7.675 6.4 6.02203 -108499 -125508 -73159.5 -5474.63 25320.2 -7723.35 -7.4154 
628 2 6.102 6.417 6.4 6.02654 -186218 -147973 -32393.5 -4712.67 6116.27 -47694.6 -7.41836 
629 2 6.865 5.222 6.4 6.02424 -106040 -120591 -95074.5 29272.6 15943.2 -8121.02 -7.41396 
630 2 6.211 3.963 6.4 6.02073 -180135 -115688 -32812.2 4079.03 14841 -33100 -7.41781 
631 2 6.974 2.768 6.4 6.02667 -157697 -154015 -98340 8741.92 2853.87 -8119.79 -7.41503 
632 2 6.32 1.51 6.4 6.02657 -174997 -154474 -53212.6 -13913.8 22574 -18310.1 -7.41699 
633 2 7.083 0.315 6.4 6.02272 -167550 -148685 -74715.6 12019.4 -17105.8 -13461.3 -7.41571 
663 2 8.717 11.45 6.4 6.02353 -150376 -178817 -53639 16398.1 -6657.98 18407.1 -7.41768 
664 2 8.064 10.192 6.4 6.01899 -143101 -157699 10906.5 -7526.07 -8082.87 -46895.3 -7.42071 
665 2 8.826 8.996 6.4 6.01899 -130316 -155714 -73387.6 -1989.37 11460.2 -900.93 -7.41626 
666 2 8.173 7.738 6.4 6.02354 -155457 -189702 13657 4483.67 10163.8 -53877.5 -7.4212 
667 2 8.935 6.543 6.4 6.02354 -130774 -189486 -89532.8 17380.9 16039.1 -12584.9 -7.41529 
668 2 8.282 5.285 6.4 6.01899 -144482 -159317 -960.86 -21510.5 24172.3 -48207.2 -7.42041 
669 2 9.044 4.089 6.4 6.02159 -107525 -143652 -92119.1 7272.06 11388.6 -19619.1 -7.41508 
670 2 8.39 2.831 6.4 6.02371 -182326 -153343 -24679.3 -9848.09 33272.4 -35668.2 -7.41911 
671 2 9.153 1.636 6.4 6.02424 -103222 -125131 -78666.6 27535 -7585.74 -23779.1 -7.41528 
672 2 8.499 0.377 6.4 6.02227 -161628 -114263 -58037 -682.318 24992.4 -23216.1 -7.4166 
195 1 9.698 10.632 3 6.02624 -141046 -164959 41080.4 2427.79 -23037.2 -36503.3 -7.42155 
197 1 9.589 8.179 3 6.02199 -129685 -135302 48764.3 15104 3313.79 -49569.7 -7.42252 
199 1 9.48 5.725 3 6.02601 -136676 -163683 26804.3 -7978.52 21268.8 -49294.3 -7.42222 
201 1 9.371 3.271 3 6.02033 -123622 -129203 -6841.46 -24758.6 39491.5 -38421.6 -7.41975 
203 1 9.262 0.818 3 6.02697 -115534 -155481 -46294.3 -7014.34 35176.2 -28630.6 -7.41743 
233 1 11.877 11.765 3 6.01899 -140842 -169123 48740.2 17446.5 -40639.8 -12089.8 -7.4231 
234 1 11.115 10.569 3 6.01899 -138488 -146077 -89919.7 20442.4 2791.41 7174.85 -7.41555 
235 1 11.768 9.311 3 6.02354 -155946 -198871 90861.1 -4055.66 -11215.3 -17948.7 -7.42533 
236 1 11.006 8.116 3 6.02424 -124552 -136636 -105136 -23583.8 8890.19 1734.08 -7.41416 
237 1 11.66 6.857 3 6.01899 -182199 -133226 86828.8 -15336.1 7256.47 -26118.3 -7.42501 
238 1 10.897 5.662 3 6.02662 -110953 -162175 -98337.8 11129.3 1637.35 -10496.2 -7.4149 
239 1 11.551 4.404 3 6.02667 -181676 -170294 48679.9 -1558.33 30744.1 -29273.3 -7.42311 
240 1 10.788 3.209 3 6.02033 -104609 -129633 -78718.8 -6570.82 -995.782 -21390.8 -7.41547 
241 1 11.442 1.95 3 6.02418 -167596 -134925 -1593.59 -20656.6 44882.3 -31961.6 -7.41939 
242 1 10.679 0.755 3 6.02551 -110153 -158312 -54156.2 650.069 -17183.3 -27851.2 -7.41691 
272 1 13.294 11.702 3 6.02424 -132161 -106178 -98438.3 -19480.2 -9889.09 3888.98 -7.41378 
273 1 13.948 10.443 3 6.02073 -180302 -136814 86778.4 -13967.6 -26355.1 6873.47 -7.4248 
274 1 13.185 9.248 3 6.02703 -126329 -148052 -121249 774.038 4213.86 3415.17 -7.41336 
275 1 13.839 7.99 3 6.02667 -186031 -170148 113124 339.738 -89.1413 -6.21833 -7.42645 
276 1 13.076 6.795 3 6.02051 -161644 -121090 -121325 -10131.9 -4994.85 1899.3 -7.41329 
277 1 13.73 5.536 3 6.02316 -181239 -135869 90861.3 -17197 21217.3 -721.178 -7.42455 
278 1 12.967 4.341 3 6.02654 -166246 -162256 -89580.7 4272.61 -7590.75 -1156.44 -7.41534 
279 1 13.621 3.083 3 6.02181 -168802 -141539 41013.7 19270.1 43099.7 -1813.75 -7.42197 
280 1 12.858 1.887 3 6.02283 -152919 -139439 -54924.9 21602.7 -10797.3 -4715.87 -7.41685 
281 1 13.512 0.629 3 6.02683 -118169 -168044 -12612.4 1939.06 36766.6 -10030.7 -7.4186 
311 1 16.127 11.576 3 6.02662 -130246 -171352 49007.8 -3797.97 -44503.3 21945.5 -7.42318 
312 1 15.364 10.381 3 6.02073 -174810 -111420 -105073 -18194.3 -2921 -8405.14 -7.41417 
313 1 16.018 9.122 3 6.02424 -130483 -136392 90743.3 -20481.5 -9868.18 18892.6 -7.42459 
314 1 15.255 7.927 3 6.02654 -169518 -152600 -121170 -5699.54 851.204 -5278.54 -7.41361 
315 1 15.909 6.669 3 6.02203 -125758 -140103 86700.5 17894.2 19042.2 19314.5 -7.42498 
316 1 15.146 5.473 3 6.02272 -153592 -132619 -105100 13348.8 -5911.11 6920.39 -7.41417 
317 1 15.8 4.215 3 6.02601 -132514 -172145 48957.2 -75.2349 41302.3 27619.4 -7.4228 
318 1 15.037 3.02 3 6.02364 -162343 -168109 -71980.6 -4028.98 -6369.78 20000.8 -7.41629 
319 1 15.691 1.762 3 6.01938 -122080 -155555 173.076 6622.48 43757.9 26504.5 -7.41997 
320 1 14.929 0.566 3 6.02006 -117907 -165171 -37145.2 9536.11 -24474.7 23293.2 -7.41802 
350 1 17.544 11.513 3 6.02601 -132319 -147511 -72043.1 -11490.5 -14314.4 -15627.5 -7.41637 
351 1 18.198 10.255 3 6.02272 -176428 -133962 40883.7 13755.5 -20122.5 38152.3 -7.42195 
352 1 17.435 9.059 3 6.02069 -112224 -126681 -89921 6295.8 4809.36 -6059.85 -7.41507 
353 1 18.089 7.801 3 6.02647 -188975 -165963 48868.4 -488.196 9836.43 41263.9 -7.42275 
354 1 17.326 6.606 3 6.02601 -112968 -163179 -98553.3 -14589.1 8250.55 6640.7 -7.41453 
355 1 17.98 5.348 3 6.02272 -177419 -133964 26710.8 23925.1 32082.3 43037.8 -7.42185 
356 1 17.217 4.152 3 6.02203 -98300.4 -133835 -88634.2 7088.19 5987.89 22177.7 -7.41511 
357 1 17.871 2.894 3 6.02667 -181218 -160827 -7748.18 7260.8 42080.9 40459.3 -7.41995 
358 1 17.108 1.699 3 6.02185 -104303 -129480 -68054.6 -29154.8 -9489.76 32282.8 -7.41592 
359 1 17.762 0.44 3 6.02421 -159081 -119751 -45345.1 -7115.77 28577.2 31487.9 -7.41717 
702 2 10.134 11.513 6.4 6.02667 -138747 -164187 33583.3 8200.65 -40080.7 -29624 -7.4215 
703 2 10.897 10.318 6.4 6.02317 -172274 -115191 -89435.1 26761.2 -4176.77 11486.5 -7.41505 
704 2 10.243 9.059 6.4 6.02185 -134178 -132103 65300.5 23232.5 -6714.77 -32812.3 -7.42295 
705 2 11.006 7.864 6.4 6.02667 -169199 -156030 -104991 10020.5 5063.46 3813.83 -7.41446 
706 2 10.352 6.606 6.4 6.02203 -131019 -136330 56992.9 -19225.3 22351.6 -34702.4 -7.42311 
707 2 11.115 5.41 6.4 6.02182 -152299 -133079 -98041.7 -8775.99 2803.9 -12031.9 -7.41445 
708 2 10.461 4.152 6.4 6.02601 -135759 -167270 23352 -805.719 41891.1 -39759.3 -7.42144 
709 2 11.224 2.957 6.4 6.02647 -160770 -167063 -76199 7354.42 -1527.68 -27984.5 -7.41576 
710 2 10.57 1.699 6.4 6.02069 -112364 -135753 -17909.7 -23098.4 40879.9 -36266.8 -7.4189 
711 2 11.333 0.503 6.4 6.02406 -150879 -129946 -46586.2 -11315.2 -24605.2 -34106 -7.41729 
741 2 12.967 11.639 6.4 6.02624 -138014 -142036 -98075.1 5335.84 -11773.8 3674.02 -7.41416 
742 2 12.313 10.381 6.4 6.02181 -176196 -140503 81454 -17560.3 -27732.2 -16261 -7.42442 
743 2 13.076 9.185 6.4 6.02203 -117201 -117922 -121388 -14424.3 2637.47 4847.69 -7.41305 
744 2 12.422 7.927 6.4 6.02667 -188745 -168223 104610 400.326 3576.77 -11240.9 -7.42593 
745 2 13.185 6.732 6.4 6.02185 -111341 -122686 -121435 23766 -5540.46 -141.58 -7.41292 
746 2 12.531 5.473 6.4 6.02317 -178881 -135821 81393.9 17856.1 27917.4 -15906.8 -7.4244 
747 2 13.294 4.278 6.4 6.02667 -117842 -164335 -89421.2 4000.23 -7882.74 -9448.96 -7.41502 
748 2 12.64 3.02 6.4 6.02272 -167738 -141654 33665.5 -21368.5 45667.1 -19842.4 -7.42167 
749 2 13.403 1.824 6.4 6.02303 -105176 -141207 -53445.1 -16793 -12685.8 -14975.9 -7.41661 
750 2 12.749 0.566 6.4 6.02652 -165019 -166763 -16643.5 -6428.52 34680.5 -12740.7 -7.41876 
780 2 14.384 11.702 6.4 6.01899 -139778 -170723 57075.1 -15817.8 -41218.2 -1870.27 -7.4239 
781 2 15.146 10.506 6.4 6.01899 -138804 -143465 -105423 -16593.2 685.131 -6174.1 -7.41454 
782 2 14.493 9.248 6.4 6.02354 -154870 -200699 104480 4556.47 -11453.5 2505.44 -7.4261 
783 2 15.255 8.053 6.4 6.02354 -137653 -183090 -121186 -474.494 2904.95 -4612.66 -7.41378 
784 2 14.602 6.795 6.4 6.01899 -144456 -169531 104451 -14332.7 8043.77 8865.19 -7.42603 
785 2 15.364 5.599 6.4 6.01899 -121519 -159813 -105204 -22596.7 -5827.47 2432.59 -7.41467 
786 2 14.711 4.341 6.4 6.02353 -151513 -199411 65194.8 5400.33 31824.8 10544.3 -7.42407 
787 2 15.473 3.146 6.4 6.01889 -122617 -161366 -73441.4 16711.8 -4925.68 10340.8 -7.41624 
788 2 14.82 1.887 6.4 6.01988 -132500 -166935 10872.6 24034.8 44633.3 16356.2 -7.4206 
789 2 15.582 0.692 6.4 6.02356 -128523 -192214 -41809.4 3669.32 -19824.7 17449.9 -7.418 
819 2 17.217 11.828 6.4 6.02073 -178890 -110778 -73182.6 7965.97 -6431.04 -9443.23 -7.41584 
820 2 16.563 10.569 6.4 6.02424 -134226 -134078 65570.3 16313 -25020 22227.1 -7.42273 
821 2 17.326 9.374 6.4 6.02654 -177829 -150989 -89225.6 -8865.89 12115.5 -2098.93 -7.4154 
822 2 16.672 8.116 6.4 6.02203 -131011 -138029 81278.4 -17112.2 -328.071 32156.2 -7.42416 
823 2 17.435 6.92 6.4 6.02182 -156970 -128412 -98198.3 -31558.9 9019.53 8398.11 -7.41445 
824 2 16.781 5.662 6.4 6.02624 -140396 -169309 57131.5 5711.68 18879.7 36698 -7.42306 
825 2 17.544 4.467 6.4 6.02647 -162539 -161193 -89375.4 -11394.6 2907.9 20214.2 -7.41488 
826 2 16.89 3.209 6.4 6.02199 -122916 -137624 13577.9 -11774.2 41559.7 35745 -7.42034 
827 2 17.653 2.013 6.4 6.02373 -150833 -129663 -73119.7 -27966.3 -5947.54 25824.2 -7.41579 
828 2 16.999 0.755 6.4 6.02705 -118811 -159963 -33081.2 3906.49 37909.1 34872.7 -7.41774 
389 1 20.377 11.387 3 6.02624 -185890 -155597 -12611.4 -11647 -9683.44 36815.7 -7.41899 
390 1 19.614 10.192 3 6.02647 -179050 -154934 -54966.8 -14793.4 9504.01 -6914.5 -7.41688 
391 1 20.268 8.934 3 6.02181 -129602 -126383 -1609.91 12763.5 5259.47 54866.6 -7.41927 
392 1 19.505 7.738 3 6.02272 -156466 -127105 -78332 6299.83 19000.8 9845.89 -7.41554 
393 1 20.159 6.48 3 6.02667 -141533 -154179 -6809.18 2311.95 13533.3 53416.4 -7.41964 
394 1 19.396 5.285 3 6.02317 -152256 -122384 -93057.3 -30321.4 16442.4 15160.8 -7.41459 
395 1 20.05 4.026 3 6.02185 -131193 -120120 -19431.3 -10680.9 24332 39848.2 -7.41853 
396 1 19.287 2.831 3 6.02667 -159422 -154541 -91827.5 -9643.23 4428.59 16717.9 -7.41511 
397 1 19.941 1.573 3 6.02203 -119158 -123778 -45371.7 28952.1 28202.8 23667 -7.41697 
398 1 19.178 0.377 3 6.02336 -154704 -120035 -68969.3 7550.11 -20811 19906.5 -7.41569 
428 1 21.793 11.324 3 6.02127 -170758 -125484 -16846 7182.39 28375.9 -23657.3 -7.41901 
429 1 22.447 10.066 3 6.02631 -143510 -161514 -46733.5 -24354.5 17289.9 38442.5 -7.41776 
430 1 21.685 8.871 3 6.01736 -130551 -152998 -54062.2 -35270.2 32693.8 -978.493 -7.41688 
431 1 22.338 7.612 3 6.01889 -142735 -141043 -46523.9 -22729.9 7208.16 44741 -7.4176 
432 1 21.576 6.417 3 6.02353 -129195 -182911 -84543.9 -14465 21082.5 4443.25 -7.41582 
433 1 22.229 5.159 3 6.01899 -141873 -146435 -40246.9 23129.5 5878.34 36523.7 -7.41795 
434 1 21.467 3.963 3 6.01899 -115089 -154115 -100821 4721.29 8864.76 4038.96 -7.41492 
435 1 22.12 2.705 3 6.02354 -149705 -181554 -45549.5 6932.1 19436.5 24730.8 -7.41743 
436 1 21.358 1.51 3 6.02354 -128454 -188447 -92211.7 -16318.1 -6055.43 10923.2 -7.41532 
437 1 22.011 0.252 3 6.01857 -135034 -177601 -74609 14436.6 16771.4 15020 -7.41651 
467 1 24.627 11.198 3 6.02317 -175979 -108405 -76358.2 -25550.3 23405.1 15355.8 -7.41565 
468 1 23.864 10.003 3 6.02631 -126548 -162869 -17999.3 -11263.5 51806.1 -17325.7 -7.41899 
469 1 24.518 8.745 3 6.02272 -168303 -109601 -78763.3 16375.6 16816.1 18468.1 -7.41558 
470 1 23.755 7.549 3 6.02199 -106468 -132280 -57871.1 10105.5 32656.8 -10086.5 -7.41614 
471 1 24.409 6.291 3 6.02647 -181554 -141484 -74909.4 2087.84 3087.63 21512.7 -7.41572 
472 1 23.646 5.096 3 6.02624 -112661 -162090 -86120.1 -11158.2 14817.4 -5830.14 -7.41492 
473 1 24.3 3.838 3 6.02181 -174480 -115185 -67933.4 24851.9 18565.2 28233.2 -7.41583 
474 1 23.537 2.642 3 6.02203 -103545 -130687 -102964 5362.61 7699.47 14979.9 -7.41436 
475 1 24.191 1.384 3 6.02652 -176753 -152849 -83242.5 8578.81 22246.1 33564.4 -7.4153 
476 1 23.428 0.189 3 6.02584 -119556 -151819 -89675.6 -18859.1 -7365.27 35717.9 -7.41477 
499 1 26.043 11.135 3 6.02272 -169042 -141152 23624.9 16791 55330.7 -16359 -7.42153 
500 1 26.697 9.877 3 6.02732 -144354 -138441 -92117.2 -4483.87 22685.3 -42.1938 -7.41482 
501 1 25.934 8.682 3 6.02647 -167365 -172110 -24742.2 -2776.84 47513.2 -11027.5 -7.41866 
502 1 26.588 7.424 3 6.02104 -130829 -106558 -98250.1 16523.2 8453.15 1606.1 -7.41464 
503 1 25.825 6.228 3 6.02272 -150650 -138733 -53213 15545.1 27135.7 -10386.9 -7.41677 
504 1 26.479 4.97 3 6.02731 -148510 -137184 -96982.1 -1516.57 16943.2 12547.6 -7.41517 
505 1 25.716 3.775 3 6.02317 -156601 -131202 -87041.7 -24091.3 28528.4 2922.14 -7.41481 
506 1 26.37 2.516 3 6.02083 -139500 -110424 -105591 -13661.8 35857.7 24028.7 -7.41417 
507 1 25.607 1.321 3 6.02667 -163211 -159462 -113917 -6955.25 15992.1 31214.8 -7.41425 
508 1 26.261 0.063 3 6.02786 -129992 -149647 -120823 7044.85 2242.53 26857.8 -7.4134 
858 2 18.633 11.89 6.4 6.02073 -179451 -125942 10857.9 5801.62 -36578.6 30422.1 -7.42017 
859 2 19.396 10.695 6.4 6.02662 -128529 -152933 -53678.6 -10911.2 19145.1 -3556.89 -7.41743 
860 2 18.742 9.437 6.4 6.02667 -186226 -162477 33601.7 -4952.64 -5647.07 49493.7 -7.42197 
861 2 19.505 8.242 6.4 6.02033 -114630 -121527 -76211.7 3021.66 25045 12637.3 -7.41574 
862 2 18.851 6.983 6.4 6.02317 -182054 -128222 23273.2 20402.4 13456.3 56161.8 -7.42126 
863 2 19.614 5.788 6.4 6.02601 -114691 -153463 -92214.8 -8281.84 11261.4 19647.6 -7.41486 
864 2 18.96 4.53 6.4 6.02272 -174091 -130536 -621.742 -10235.7 29662.9 45024.5 -7.42033 
865 2 19.723 3.334 6.4 6.02199 -103033 -123598 -95077.2 -27559.2 -906.631 17906.1 -7.41423 
866 2 19.069 2.076 6.4 6.0265 -176489 -159596 -32399.5 11068.1 38222.7 29212.3 -7.41813 
867 2 19.832 0.881 6.4 6.02584 -116590 -146801 -78238.1 -4207.69 -15274 15512.7 -7.41529 
898 2 20.813 10.758 6.4 6.02601 -136106 -151902 -16880.1 -5982.75 -6294.02 36460.1 -7.41907 
899 2 21.576 9.563 6.4 6.02317 -170326 -120470 -46670.3 5362.26 41926.2 -4202.72 -7.41693 
900 2 20.922 8.304 6.4 6.02033 -128658 -119716 -17746 15687.9 10977.5 53538.1 -7.41889 
901 2 21.685 7.109 6.4 6.02397 -162762 -152670 -78893.5 -11903.3 24337.8 5372.37 -7.41609 
902 2 21.031 5.851 6.4 6.02662 -142202 -169161 -24747.8 23122.7 14197.4 46543.5 -7.41927 
903 2 21.793 4.656 6.4 6.01732 -121346 -150235 -98262 7921.17 5673.12 6459.39 -7.41481 
904 2 21.14 3.397 6.4 6.02127 -143119 -149033 -32952.9 34283.5 21267.9 29382.6 -7.41798 
905 2 21.902 2.202 6.4 6.02353 -129743 -184321 -99700.4 -7936.89 -2824.75 8504.95 -7.41532 
906 2 21.249 0.944 6.4 6.02056 -135495 -178801 -59570.4 11783.5 21418.6 18953.4 -7.41715 
937 2 23.646 10.884 6.4 6.02624 -181730 -162344 -1553.24 -6947.36 50096.4 -22943.4 -7.4197 
938 2 22.992 9.626 6.4 6.02181 -174101 -113264 -54263.5 -23139.2 15496.8 28746.9 -7.41668 
939 2 23.755 8.43 6.4 6.02181 -158661 -129864 -46271.8 -26939.5 42393.8 -16126.8 -7.41732 
940 2 23.101 7.172 6.4 6.02631 -183339 -141400 -58047.8 4048.69 7613.82 33268.9 -7.41683 
941 2 23.864 5.977 6.4 6.02317 -156031 -125784 -74822.4 9345.54 20246 -8095 -7.41538 
942 2 23.21 4.718 6.4 6.02033 -130877 -112776 -53043.3 25278 4596.73 28706.4 -7.41629 
943 2 23.973 3.523 6.4 6.02667 -160049 -160662 -96840 -13407.6 19280 8431.93 -7.41524 
944 2 23.319 2.265 6.4 6.02697 -130151 -153181 -61483.9 11596.7 14280.8 33743.2 -7.41614 
945 2 24.082 1.07 6.4 6.01971 -161751 -116757 -103624 3114.43 6977.5 26629.7 -7.41418 
976 2 25.062 10.947 6.4 6.02128 -173279 -108567 -78727.3 -21959.1 17937.9 11540 -7.41573 
977 2 25.825 9.751 6.4 6.02106 -112378 -141506 -7051.13 -20467.9 52977.7 -14951.4 -7.41962 
978 2 25.171 8.493 6.4 6.02647 -178475 -139181 -84511.6 739.968 14452.5 16078 -7.41516 
979 2 25.934 7.298 6.4 6.02631 -113108 -171914 -40136.5 -1903.29 34556.4 -13215.7 -7.41743 
980 2 25.28 6.04 6.4 6.02272 -170670 -109346 -86343.8 -14826.1 2371.7 15715 -7.4152 
981 2 26.043 4.844 6.4 6.02203 -101948 -137480 -67797.9 -23535.3 33764.5 1986.74 -7.41588 
982 2 25.389 3.586 6.4 6.02654 -184606 -142479 -87301.8 5878.94 16817.6 23235 -7.41539 
983 2 26.152 2.391 6.4 6.02424 -109195 -127202 -105586 11696 38827.6 18899 -7.41383 
984 2 25.498 1.132 6.4 6.02226 -167353 -110545 -105360 17254.1 16712.9 38616.8 -7.41395 
1013 2 27.242 9.814 6.4 6.02373 -128290 -111530 -93156.8 21742.4 21366.5 6651.52 -7.4145 
1014 2 27.351 7.361 6.4 6.0217 -120815 -114067 -100994 -15064.7 7944.07 5603.14 -7.41477 
1015 2 27.46 4.907 6.4 6.02469 -138617 -147743 -102775 5052.87 16786.5 -857.076 -7.41485 
1016 2 27.569 2.454 6.4 6.01957 -125294 -122745 -113944 -14745.7 35007.2 -1743.33 -7.41389 
28 1 1.743 23.278 3 6.01825 -120270 -170789 -41870.8 18836.6 19857.4 17494.7 -7.41762 
29 1 0.981 22.082 3 6.02219 -136037 -157474 10806.3 2868.26 -44651.1 16376.4 -7.42052 
30 1 1.635 20.824 3 6.02384 -164043 -163187 -73271.4 5911.06 4958.12 10258.2 -7.41636 
31 1 0.872 19.629 3 6.02192 -139479 -137529 65341.9 -21491 -31823.4 10501.3 -7.42337 
32 1 1.526 18.37 3 6.02316 -157855 -126049 -105335 -11407.5 5789.24 2501.4 -7.4141 
33 1 0.763 17.175 3 6.02756 -151858 -169189 104518 -2325.07 -8017.89 8763.91 -7.42596 
34 1 1.417 15.917 3 6.02272 -159663 -122173 -121235 24385.2 -2905.7 -4684.18 -7.41341 
35 1 0.654 14.721 3 6.02104 -140772 -140859 104557 17491.3 11495.4 2590.06 -7.42565 
36 1 1.308 13.463 3 6.02647 -182229 -145136 -105076 1328.26 -821.135 -6181.54 -7.4142 
37 1 0.545 12.268 3 6.02732 -147025 -173490 56832.2 -1346.25 41261.5 -1998.06 -7.42346 
68 1 3.16 23.215 3 6.02185 -113601 -131434 -33052.9 -26287.1 -37889.5 34870.1 -7.41753 
69 1 3.814 21.956 3 6.02317 -154590 -125112 -73158.2 -11260.9 5911.41 25766.6 -7.41562 
70 1 3.051 20.761 3 6.02667 -181899 -164672 13773.8 -5469.01 -41573 35666.5 -7.42104 
71 1 3.705 19.503 3 6.02181 -152801 -128570 -89564.4 31057.6 -2831.95 20249.8 -7.41491 
72 1 2.942 18.307 3 6.02181 -177997 -137070 56900.8 15696.2 -18870.1 36801.6 -7.42335 
73 1 3.596 17.049 3 6.02624 -168543 -158221 -97924.8 12062.4 -9026.51 8399.31 -7.41454 
74 1 2.833 15.854 3 6.02647 -189495 -168704 81537.5 -1633.93 355.242 32061.2 -7.42449 
75 1 3.487 14.596 3 6.02181 -119483 -122352 -89596.3 26319.5 -12164.6 -2133.3 -7.41482 
76 1 2.724 13.4 3 6.02181 -176265 -137840 65241.6 22009.7 25071.9 22219.9 -7.42345 
77 1 3.378 12.142 3 6.02624 -138091 -146221 -73262.3 3354.03 6488.87 -9463.91 -7.41555 
107 1 5.993 23.089 3 6.02541 -102862 -124743 -78278.3 27653 15257 15528.9 -7.41563 
108 1 5.23 21.893 3 6.02272 -165828 -129054 -32504.7 8275.17 -38185.9 29177.8 -7.41803 
109 1 5.884 20.635 3 6.02601 -108753 -155697 -95008.8 7872.92 922.221 17874 -7.41473 
110 1 5.121 19.44 3 6.02647 -185068 -161932 -770.881 -9480.98 -29649.9 45021 -7.42029 
111 1 5.775 18.182 3 6.02069 -100607 -125517 -92228.9 29365.2 -11277 19662.7 -7.41487 
112 1 5.012 16.986 3 6.02128 -177359 -130144 23462.5 15569.5 -13462.3 56136.4 -7.42184 
113 1 5.666 15.728 3 6.02601 -131447 -171325 -76418.7 -3536.27 -25012.5 12623.3 -7.416 
114 1 4.904 14.533 3 6.02201 -155931 -194193 33602 -1800.1 5515.42 49501 -7.42182 
115 1 5.557 13.275 3 6.01899 -139304 -150410 -53502.7 26407.4 -19085.2 -3527.67 -7.41738 
116 1 4.795 12.079 3 6.01899 -141750 -159039 11046.9 23087.3 36439.6 30514 -7.42072 
146 1 7.41 23.026 3 6.02601 -122434 -155779 -59269.8 -15538.7 -21428.5 18983.6 -7.41656 
147 1 8.064 21.768 3 6.02272 -151988 -124417 -99366.5 31623.3 2924.57 8495 -7.41482 
148 1 7.301 20.572 3 6.02068 -119659 -124814 -32865 3947.07 -21231.6 29431.5 -7.41799 
149 1 7.955 19.314 3 6.02647 -160134 -154603 -98398.6 10122 -5577.11 6552.61 -7.41466 
150 1 7.192 18.119 3 6.02601 -133882 -155311 -24742.8 -11282.7 -14209.4 46606 -7.41871 
151 1 7.846 16.861 3 6.02272 -154802 -124023 -78720.1 29641.1 -24371.2 5359.96 -7.41546 
152 1 7.083 15.665 3 6.02203 -126122 -122994 -17997.9 15779.1 -10953.6 53481.8 -7.41878 
153 1 7.737 14.407 3 6.02667 -177209 -152886 -46788.5 11405.5 -41884.8 -4186.77 -7.41751 
154 1 6.974 13.212 3 6.02185 -132405 -117797 -16533.7 -12507 6399.51 36454.8 -7.41833 
192 1 9.153 14.344 3 6.02667 -183949 -142744 -54280.8 3977.14 -15510 28764.2 -7.417 
509 2 0 15.98 6.4 6.02329 -139206 -145559 113060 19852.5 -12.8687 101.856 -7.42545 
510 2 0.109 13.526 6.4 6.02781 -141507 -180675 86798.5 1127.01 26335.2 6745.8 -7.42497 
536 2 1.09 23.403 6.4 6.01932 -137492 -166049 -37043.1 23756.7 24481.9 23266.5 -7.41812 
537 2 1.852 22.208 6.4 6.02265 -141079 -197833 254.354 818.865 -43748.8 26462.1 -7.42043 
538 2 1.199 20.95 6.4 6.01936 -133620 -166944 -72087.8 -12407.3 6325.89 20077.3 -7.41652 
539 2 1.961 19.754 6.4 6.01825 -141133 -168760 48838.7 -17412.9 -41305.2 27548.2 -7.4231 
540 2 1.308 18.496 6.4 6.02354 -146320 -192141 -104855 9675.54 5917.75 6754.31 -7.41466 
541 2 2.07 17.301 6.4 6.02265 -155659 -199467 86648.5 4082.8 -19063.4 19464.4 -7.42528 
542 2 1.417 16.043 6.4 6.01936 -127118 -153032 -121313 -9372.07 -734.447 -5221.39 -7.4136 
543 2 2.179 14.847 6.4 6.01899 -144409 -168143 90887.8 -13853.3 9796.22 18777 -7.42535 
544 2 1.526 13.589 6.4 6.02353 -150093 -173013 -105096 8775.05 3011.54 -8562.19 -7.41479 
545 2 2.288 12.394 6.4 6.02082 -145277 -164712 49048.4 24325.2 44460.6 22016.4 -7.42284 
575 2 3.923 23.529 6.4 6.02272 -157476 -131062 -45255.5 -26990.8 -28597.8 31535 -7.41732 
576 2 3.269 22.271 6.4 6.02667 -114528 -162720 -68095.3 8611.12 9489.2 32272.3 -7.41602 
577 2 4.032 21.076 6.4 6.02317 -172912 -127746 -7936.01 11425 -42042.2 40489 -7.4196 
578 2 3.378 19.817 6.4 6.02185 -106270 -128365 -88526.1 30873.8 -5895.68 22163.9 -7.41456 
579 2 4.141 18.622 6.4 6.02667 -188448 -162215 26818.6 -4711.19 -32045.2 43058.9 -7.42217 
580 2 3.487 17.364 6.4 6.02203 -106662 -130724 -98545.4 -5359.58 -8342.47 6671.09 -7.41415 
581 2 4.25 16.168 6.4 6.02181 -178622 -134958 48691.8 -18964.4 -9864.98 41249.2 -7.42268 
582 2 3.596 14.91 6.4 6.02624 -127227 -156589 -89881.4 12892.3 -4840 -6065.25 -7.41472 
583 2 4.359 13.715 6.4 6.02647 -187394 -165324 41030.8 5948.77 20157.7 38130.1 -7.42192 
584 2 3.705 12.457 6.4 6.02199 -125907 -118175 -71996.5 -7954.11 14137.8 -15559.1 -7.41564 
614 2 5.339 23.592 6.4 6.02647 -164772 -158330 -68977 9976.9 20835 19972 -7.41603 
615 2 6.102 22.397 6.4 6.02601 -125156 -156740 -45473.9 -8927.8 -28161 23666.8 -7.41733 
616 2 5.448 21.139 6.4 6.02272 -148373 -126252 -91834.3 -9573.22 -4449.64 16666.3 -7.41478 
617 2 6.211 19.943 6.4 6.02203 -125703 -124898 -19445 -25689.6 -24340.1 39817.7 -7.41888 
618 2 5.557 18.685 6.4 6.02667 -160581 -155429 -93024.4 11624 -16402.4 15158.6 -7.41493 
619 2 6.32 17.49 6.4 6.02185 -133184 -121113 -6891.32 16398.7 -13522.2 53375.9 -7.41931 
620 2 5.666 16.231 6.4 6.02317 -159766 -122709 -78537.5 31885.9 -19009.4 9802.35 -7.4154 
621 2 6.429 15.036 6.4 6.02667 -140682 -154645 -1668.46 6462.35 -5245.35 54818.4 -7.41958 
622 2 5.775 13.778 6.4 6.02272 -167326 -124217 -54994.6 -5975.5 -9564.63 -6914.05 -7.41693 
623 2 6.538 12.582 6.4 6.02199 -127559 -125847 -12405.6 -5854.08 9763.47 36874.6 -7.41856 
653 2 8.173 23.718 6.4 6.02654 -172673 -153114 -74515.8 -12812.8 -16716.5 15095.1 -7.416 
654 2 7.519 22.46 6.4 6.02203 -99965.5 -126908 -92201.4 -5301.13 6127.31 10957.1 -7.41511 
655 2 8.282 21.264 6.4 6.02128 -172097 -119515 -45321.3 -30317.9 -19290.6 24825.2 -7.41716 
656 2 7.628 20.006 6.4 6.02601 -117639 -171495 -101037 26668.1 -8797.23 4086.17 -7.41482 
657 2 8.39 18.811 6.4 6.02201 -152721 -179924 -40398.6 -2878.38 -5826.2 36518 -7.41767 
658 2 7.737 17.553 6.4 6.01899 -118128 -154501 -84448.8 -4784.96 -21083.7 4447.21 -7.41551 
659 2 8.499 16.357 6.4 6.01899 -139430 -145479 -46304.8 -15520.9 -7234.1 44816.8 -7.41774 
660 2 7.846 15.099 6.4 6.02353 -139027 -184183 -54332.9 16045.1 -32713.1 -959.453 -7.41742 