ITEM: TIMESTEP
68
ITEM: NUMBER OF ATOMS
1016
ITEM: BOX BOUNDS pp pp pp
0.0000000000000000e+00 2.7677714300000002e+01
0.0000000000000000e+00 4.7939207500000002e+01
0.0000000000000000e+00 1.5000000000000000e+01
ITEM: ATOMS id type x y z c_csym c_2[1] c_2[2] c_2[3] c_2[4] c_2[5] c_2[6] c_3 
38 1 1.20588 11.0096 2.96837 6.01226 -167827 -115799 -48271.3 -26216.7 13225.1 -7385.17 -7.41523 
39 1 0.444542 9.81364 2.95769 6.01244 -140476 -156221 34758.5 -18011.9 42194.8 -856.571 -7.42056 
40 1 1.09802 8.55521 2.94638 6.01532 -160065 -120886 -29131.7 -13161.4 11655.7 -8824.82 -7.41559 
41 1 0.335205 7.36008 2.93676 6.01873 -133065 -154005 23696.5 -9432.07 25310.1 -120.779 -7.41867 
42 1 0.988015 6.10132 2.928 6.02527 -161082 -128906 -14743.7 -13383.4 2437.49 -6175.04 -7.41573 
43 1 0.224749 4.9065 2.92014 6.02097 -134681 -152348 17425.1 -12867.4 22458.2 -4808.79 -7.41741 
44 1 0.877287 3.64757 2.91284 6.0198 -163371 -132437 -3354.89 -13346.4 12899.7 -5062.15 -7.4159 
45 1 0.113315 2.45319 2.90585 6.02202 -140437 -152025 73.8897 -7500.53 24385.3 -3266.01 -7.41599 
46 1 0.764979 1.19385 2.90157 6.02248 -153228 -140031 -7004.76 -3332.95 12146.8 -8713.09 -7.41552 
47 1 3.49406e-06 3.40706e-06 2.89921 6.03047 -146337 -146334 -10204.4 2.66355 0.0638068 0.391499 -7.41534 
78 1 2.62251 10.9461 2.96913 6.00058 -170947 -120601 40195.9 -30286.6 44688.1 16018.4 -7.42115 
79 1 3.27576 9.68722 2.95878 6.01054 -187036 -92794.7 -24115.7 -26814 13042.5 -16907.2 -7.41624 
80 1 2.51454 8.49117 2.94795 6.00987 -158327 -129025 16964.3 -15475.3 33671.3 12952.1 -7.41875 
81 1 3.16696 7.23198 2.93946 6.0184 -173556 -107709 -10738.5 -19266.9 3773.91 -16922.2 -7.41642 
82 1 2.40448 6.03668 2.93006 6.01943 -151180 -133703 10019.5 -9779.47 17128.1 5191.23 -7.41743 
83 1 3.05669 4.77742 2.92451 6.02218 -170778 -117469 5477.02 -16678.2 212.972 -16008 -7.41679 
84 1 2.29367 3.58243 2.91586 6.01903 -153981 -138330 1681.35 -2925.69 19967.6 -6067.22 -7.41637 
85 1 2.94544 2.32303 2.91296 6.02053 -163646 -126831 9492.51 -4917.2 8862.51 -22627.5 -7.41667 
86 1 2.18134 1.12859 2.9058 6.01792 -150416 -144599 -5125.75 10567.3 10323 -15560.7 -7.41568 
117 1 5.4514 10.8201 2.96989 6.00351 -214647 -69372.5 -8360.8 -39609.8 -682.181 -25653.6 -7.41751 
118 1 4.69216 9.62287 2.9611 6.00031 -189056 -96448.6 6211.32 -28679.9 41145.2 14750.2 -7.41845 
119 1 5.34461 8.36342 2.95451 6.00901 -192225 -88746.6 303.101 -30556.3 7664.11 -33936.3 -7.41782 
120 1 4.58337 7.1674 2.94343 6.0129 -166043 -116886 -8904.91 -14069.6 19752.2 4384.33 -7.4169 
121 1 5.23568 5.90809 2.93932 6.01813 -172605 -112232 11836.5 -22095.1 2677.86 -28080.4 -7.41802 
122 1 4.47307 4.71288 2.92965 6.02254 -156518 -131439 -12700.4 -2630.78 6398.9 -834.9 -7.41603 
123 1 5.1253 3.45366 2.92825 6.02063 -161232 -124225 21560.1 -8627.16 5291.03 -20709 -7.41803 
124 1 4.36178 2.25886 2.91986 6.02341 -154514 -140472 -9517.51 15730 3245.13 -7013.49 -7.41578 
125 1 5.01369 0.999653 2.92128 6.01985 -150328 -137259 11813.8 7986.74 8689.79 -18513.8 -7.41715 
155 1 7.62574 11.9535 2.97424 5.99725 -217169 -68346.8 12405.6 -42408.9 -27999.4 -27914.3 -7.41908 
156 1 6.86766 10.7555 2.97218 5.99899 -215818 -72527.2 -6559.82 -37331.6 30464.7 12218.8 -7.41777 
157 1 7.52046 9.49605 2.97087 6.00128 -206811 -78081.6 25419.9 -36597 -4386.9 -46101.7 -7.42005 
158 1 6.76096 8.29895 2.9608 6.00285 -187138 -99328.2 -24033.2 -18315 26145.1 -6380.4 -7.41656 
159 1 7.41369 7.03972 2.95884 6.01202 -185682 -105950 26518.4 -22774.1 7043.17 -46857.7 -7.42005 
160 1 6.6521 5.84389 2.94703 6.01512 -158212 -124792 -29532 -2113.88 8338.42 -11451.1 -7.41577 
161 1 7.3049 4.58494 2.94661 6.01547 -165155 -127182 26360.1 -9187.71 13644.6 -32316.2 -7.41946 
162 1 6.54171 3.38997 2.93632 6.02244 -146363 -139034 -24064.3 13831.5 -2031.03 -8031.19 -7.41554 
163 1 7.1943 2.13107 2.93754 6.0166 -149643 -135858 18048.5 8709.41 18687 -17015.9 -7.41832 
164 1 6.43008 0.936517 2.92987 6.02303 -144877 -141935 -7230.34 30806.2 -10695.6 -6224.48 -7.41623 
194 1 9.04205 11.8892 2.97515 6.00699 -213796 -75049.3 -24315.5 -37791.3 5354.7 14368.6 -7.41663 
196 1 8.93682 9.43251 2.97708 6.00675 -200166 -92555.9 -42691 -21604.7 18637.2 -1076.33 -7.41577 
198 1 8.83008 6.97676 2.96844 6.00965 -171699 -115299 -49061.9 3662.72 13259.7 -12740.7 -7.41533 
200 1 8.72132 4.52224 2.95707 6.0112 -148551 -133064 -39100.5 21886.4 2807.27 -17433 -7.41545 
202 1 8.61072 2.06865 2.94763 6.01407 -138747 -140484 -22366.5 38193.6 -6772.35 -16081.4 -7.416 
511 2 0.21019 11.0719 6.43084 6.0115 -135447 -163633 50301.7 24954.5 43705.1 9871.03 -7.42211 
512 2 0.318217 8.6187 6.45339 6.01546 -128610 -163609 26360.7 11771.6 34809.4 4340.94 -7.41946 
513 2 0.428304 6.16547 6.47175 6.02057 -125918 -159422 21560.8 11656 20580.4 5771.72 -7.41803 
514 2 0.539086 3.71234 6.48704 6.02055 -131751 -158683 9492.99 13449.9 24027.2 3638.69 -7.41667 
515 2 0.651421 1.25941 6.49843 6.02251 -140395 -152786 -7004.51 4009.16 13619.5 -6162.14 -7.41552 
516 2 3.32161e-06 -3.83861e-07 6.50079 6.03046 -146298 -146331 -10204.3 -13.515 -0.0926637 0.512875 -7.41534 
546 2 1.62701 11.1355 6.43156 6.00968 -132670 -154289 -49062.3 26388.9 17663.5 -5113.22 -7.41533 
547 2 2.38973 9.9403 6.44116 6.012 -106046 -185428 26518.5 23056.1 44101.3 17328.1 -7.42005 
548 2 1.73491 8.68283 6.45297 6.01515 -131293 -151622 -29532.4 13556.1 14085.5 -1495.85 -7.41577 
549 2 2.49871 7.48828 6.46068 6.01812 -108183 -176722 11836.8 15119.9 25656.9 11721.3 -7.41802 
550 2 1.84494 6.23023 6.47035 6.02252 -135372 -152513 -12700.5 9586.27 3922.34 -5123.63 -7.41604 
551 2 2.60902 5.03588 6.47549 6.02217 -116378 -171955 5477.86 14672.5 13970.7 7820.23 -7.41679 
552 2 1.95564 3.77759 6.48414 6.01904 -139727 -152581 1680.63 5267.98 15238.5 -14258.6 -7.41637 
553 2 2.72024 2.58353 6.48716 6.01982 -128569 -167108 -3354.75 6699.13 10834.2 -8640.56 -7.4159 
554 2 2.06787 1.32472 6.49415 6.02204 -142605 -149815 73.5731 -8763.89 15021.4 -19485.2 -7.41599 
555 2 2.83284 0.130781 6.49225 6.01772 -145612 -148101 -1591.03 -2783.14 -2448.63 -24513.1 -7.41595 
585 2 4.46359 11.2609 6.42913 6.00128 -78435.9 -206351 25420.1 37331.9 37731.9 26850 -7.42005 
586 2 3.80662 10.0046 6.4392 6.00287 -105439 -181017 -24033.8 28960.6 18598.2 -19452 -7.41656 
587 2 4.57063 8.81028 6.44549 6.00899 -88168.6 -192831 303.084 29536.6 33221.6 10330.6 -7.41782 
588 2 3.91547 7.55302 6.45657 6.01286 -116974 -165866 -8905.02 14282.8 6078.89 -19298.4 -7.4169 
589 2 4.6796 6.35865 6.46054 6.0184 -107437 -173694 -10738 18895.8 16541.9 5192.27 -7.41642 
590 2 4.02567 5.10068 6.46994 6.0194 -129613 -155265 10019 2685.75 4068.28 -17429.1 -7.41743 
591 2 4.78989 3.90631 6.472 6.02523 -125367 -164620 -14743.6 7276.19 6566.12 976.956 -7.41573 
592 2 4.13678 2.64789 6.47986 6.02096 -136746 -150235 17424.7 -14127.2 15393.4 -17045 -7.41741 
593 2 4.90143 1.45366 6.47898 6.02243 -138394 -154705 -7574.95 -7444.66 -1415.97 -10772.4 -7.41598 
594 2 4.24924 0.194744 6.48414 6.02146 -145699 -146319 4961.76 -26226.7 9715.03 -13960.3 -7.41645 
624 2 5.88074 11.3253 6.42782 5.99901 -75999.6 -212391 -6560.35 43423.2 4650.75 -32492.2 -7.41777 
625 2 6.64481 10.1311 6.43011 6.0035 -71387.9 -212671 -8361.46 43079.7 21875.6 13417.7 -7.41751 
626 2 5.98757 8.87497 6.4389 6.00031 -94832.7 -190732 6211.77 25807.3 7798.7 -43008 -7.41845 
627 2 6.75149 7.6805 6.44122 6.01053 -93047.5 -186659 -24114.9 27451.3 21162.8 -2841.96 -7.41624 
628 2 6.09629 6.42324 6.45205 6.00987 -122870 -164352 16964.1 4934.5 5618.49 -35636.8 -7.41875 
629 2 6.86002 5.22852 6.45362 6.01533 -119356 -161605 -29131.3 10416.1 13471 -5681.52 -7.41559 
630 2 6.20641 3.97033 6.46324 6.01873 -140545 -146410 23696.5 -13878.7 12759.6 -21858.4 -7.41867 
631 2 6.97044 2.77568 6.46318 6.02236 -136076 -149069 -23735.8 -7634.5 4334.47 -5395.99 -7.41566 
632 2 6.31785 1.51693 6.47011 6.0208 -144758 -140703 14737 -30674.1 18093.9 -11044.3 -7.41767 
633 2 7.08233 0.322445 6.4665 6.01923 -142517 -142002 -4275.62 -18202.7 -10033.2 -8633.9 -7.41673 
663 2 8.72022 11.4509 6.42424 6.00351 -81419 -209877 -24077.7 42714.4 -3633.5 19951.2 -7.41673 
664 2 8.06197 10.1953 6.42441 5.9939 -77530.9 -207830 31838.1 32197.3 -8988.95 -46419.4 -7.42056 
665 2 8.82532 9.00046 6.42332 6.01343 -87922.9 -200683 -42382.5 29556.1 11120.2 4600.6 -7.41565 
666 2 8.16837 7.74423 6.43087 6.00059 -106826 -184644 40195.7 6627.42 8470.68 -46710.6 -7.42115 
667 2 8.93163 6.54911 6.43163 6.01226 -106142 -177519 -48271.2 9527.56 13008.3 -7760.67 -7.41523 
668 2 8.27659 5.2918 6.44231 6.01242 -136701 -160151 34758.9 -15887.8 21839 -36113.4 -7.42056 
669 2 9.04015 4.09678 6.44283 6.01091 -126722 -156488 -39574.6 -10382.7 10057.9 -15408 -7.41552 
670 2 8.38684 2.83843 6.45252 6.01584 -147776 -142377 21065.7 -34763.6 28173.8 -25159.2 -7.41916 
671 2 9.15102 1.64368 6.45036 6.01006 -138091 -145345 -22382.4 -30518.3 -3820.1 -18483 -7.41633 
672 2 8.49872 0.384782 6.45646 6.01534 -142711 -138575 -425.827 -45572.7 20770.6 -17196.9 -7.41734 
195 1 9.69549 10.6301 2.98074 5.99614 -193792 -91609.5 54571.7 -36405.8 -24944.9 -35692.6 -7.42234 
197 1 9.59029 8.17353 2.97905 6.00539 -188751 -102423 63588.9 -18949.5 -2685.75 -45606.9 -7.42312 
199 1 9.48343 5.71797 2.96916 6.01151 -178183 -120740 50301.9 445.007 13304.6 -42784.7 -7.4221 
201 1 9.37447 3.26357 2.95813 6.00707 -159080 -133886 30439.9 19422.8 30377.6 -31459 -7.42015 
203 1 9.26322 0.809808 2.95022 6.00766 -144351 -140138 3944.05 34921.8 26941.9 -22256.4 -7.41797 
233 1 11.8714 11.7645 2.97896 6.00387 -164243 -127927 64346.7 -32580.7 -37358.2 -10187.4 -7.42313 
234 1 11.1121 10.5674 2.9834 6.01695 -186662 -103913 -65924.9 -28294.6 5381.94 9439.14 -7.41457 
235 1 11.7666 9.30904 2.98988 6.00886 -165804 -119565 98857.7 -21033 -14131.3 -17930.3 -7.4255 
236 1 11.0068 8.11201 2.98552 6.01933 -173899 -115064 -84404.5 -870.564 8909.77 4438.83 -7.41372 
237 1 11.661 6.85359 2.98798 6.01415 -170305 -119311 96207.2 5641.98 3734.16 -26598 -7.4254 
238 1 10.8998 5.65714 2.97843 6.01954 -159996 -126294 -68740.1 29234 187.898 -6547.75 -7.41441 
239 1 11.5537 4.39871 2.97896 6.00387 -165344 -126842 64347.2 32134.9 27500.5 -27260.1 -7.42313 
240 1 10.7909 3.20301 2.9685 6.01249 -145661 -137994 -38305 52934.7 -4922.37 -16051.5 -7.4157 
241 1 11.4438 1.94439 2.96919 5.99611 -150205 -136769 26648.4 57373.9 41891.3 -27206.4 -7.42009 
242 1 10.6797 0.749371 2.96103 6.00731 -138989 -141338 -11320.2 68398.5 -18112.8 -20900.6 -7.41713 
272 1 13.2882 11.7015 2.97843 6.01955 -160176 -126301 -68739.2 -29319.2 -5764.27 3112.58 -7.41441 
273 1 13.9437 10.4441 2.98798 6.01413 -136871 -152817 96207.6 -24745 -24901.6 10064.9 -7.4254 
274 1 13.1834 9.24741 2.99051 6.02515 -153737 -131398 -106862 -15309.9 5511.85 3165.8 -7.41257 
275 1 13.8389 7.98987 2.9945 6.01949 -141158 -141104 121159 24.2306 -0.219706 -0.576937 -7.4269 
276 1 13.0775 6.79343 2.99051 6.02516 -150222 -135001 -106863 17279.4 -5496.57 3190.51 -7.41257 
277 1 13.7326 5.53567 2.98988 6.00889 -149404 -135994 98859.1 30676.3 22592.6 -3273.73 -7.4255 
278 1 12.9701 4.33965 2.9834 6.01696 -149092 -141457 -65926.5 49893.9 -10865.7 -58.4037 -7.41457 
279 1 13.624 3.08149 2.98074 5.99618 -148747 -136503 54572 62601.3 43383.4 -3755.91 -7.42234 
280 1 12.8603 1.88602 2.97515 6.00701 -142388 -146211 -24317.2 78970.9 -15120.6 -2545.85 -7.41663 
281 1 13.5128 0.62732 2.97424 5.99721 -142336 -143179 12406 85596.1 38174.4 -10289.9 -7.41908 
311 1 16.1222 11.5774 2.97905 6.0054 -107568 -183681 63589.5 -27726.9 -38154 25129.3 -7.42312 
312 1 15.3607 10.3814 2.98552 6.01931 -129061 -159870 -84405.4 -25189.3 -610.576 -9935.33 -7.41372 
313 1 16.0174 9.12491 2.98988 6.00885 -112841 -172601 98859.1 -9462.04 -8462.29 21202.5 -7.4255 
314 1 15.2557 7.92878 2.99051 6.02516 -123859 -161473 -106863 -2095.31 -14.7162 -6355.8 -7.41257 
315 1 15.9118 6.67195 2.98798 6.01415 -127386 -162376 96208.9 19390.5 21168 16532.3 -7.4254 
316 1 15.1491 5.47615 2.98552 6.01933 -130445 -158409 -84405.8 25719.8 -8299.41 5496.97 -7.41372 
317 1 15.8041 4.21867 2.97905 6.00539 -140546 -150575 63589.1 46970.2 40840 20477.9 -7.42312 
318 1 15.0405 3.02326 2.97708 6.00676 -138099 -154555 -42691.9 57215.6 -8386.4 16678.9 -7.41577 
319 1 15.6937 1.76488 2.97087 6.00131 -141975 -142828 25418.9 74083.1 42118.6 19252.7 -7.42005 
320 1 14.9293 0.569794 2.97218 5.99901 -140708 -147711 -6560.55 80616.2 -25813.8 20274.3 -7.41778 
350 1 17.5392 11.5138 2.97708 6.00674 -100891 -191844 -42692 -35924.2 -10250.9 -15602.2 -7.41577 
351 1 18.1971 10.258 2.98074 5.99616 -85517 -199845 54572.3 -25988.3 -18438.1 39449.1 -7.42234 
352 1 17.4344 9.06259 2.9834 6.01695 -100161 -190462 -65925.3 -21814.6 5483.29 -9380.42 -7.41457 
353 1 18.0915 7.80642 2.97896 6.00389 -108699 -183460 64346.8 719.795 9857.43 37446.7 -7.42313 
354 1 17.3286 6.61094 2.97843 6.01961 -109448 -176988 -68740 -163.219 5576.97 3436.53 -7.41441 
355 1 17.9841 5.35391 2.96916 6.0115 -134790 -164162 50301.6 24809.5 30400.4 32914.4 -7.42211 
356 1 17.2206 4.15869 2.96844 6.00969 -126187 -160874 -49062.1 22435.6 4404.18 17853.4 -7.41533 
357 1 17.8743 2.90058 2.95884 6.01202 -145652 -145946 26517.6 46035.5 37058.4 29528.1 -7.42005 
358 1 17.1101 1.70569 2.9608 6.00288 -137049 -149318 -24034 47101 -7547.43 25832.5 -7.41656 
359 1 17.7625 0.446859 2.95451 6.009 -141106 -139835 302.404 60115.3 25557.9 23605.7 -7.41782 
702 2 10.1374 11.5148 6.42209 5.99916 -87943.7 -198626 49642.5 31514.2 -34713.3 -31916.5 -7.42199 
703 2 10.8997 10.3194 6.41659 6.01396 -109483 -182655 -66174.9 28139.5 -1668.2 13121.7 -7.41461 
704 2 10.2424 9.0633 6.41534 6.00174 -100100 -186895 75758.7 10771.6 -5726.51 -33361.2 -7.42393 
705 2 11.0048 7.86755 6.41444 6.02326 -108883 -178838 -84083.9 7088.81 3814.67 6229.83 -7.41369 
706 2 10.3484 6.61099 6.42032 6.01129 -123137 -172475 71636.1 -16640.7 22882.6 -29075.1 -7.42374 
707 2 11.1114 5.41549 6.42161 6.01706 -120424 -167368 -69079.9 -15995.5 158.253 -9327.64 -7.41444 
708 2 10.4566 4.15801 6.43072 6.0103 -141168 -154774 46498.4 -40247.2 39047.1 -29481.1 -7.42183 
709 2 11.2204 2.96285 6.43088 6.00499 -133594 -155896 -39025.1 -43154.7 -2033.36 -22790.1 -7.41588 
710 2 10.5674 1.70438 6.4388 6.0067 -143192 -142349 16788.1 -62075.9 36767.2 -26859.5 -7.41928 
711 2 11.3319 0.509502 6.43519 5.99873 -140356 -146489 -8763.8 -64081.4 -22922.6 -27903.4 -7.41756 
741 2 12.9731 11.6391 6.42161 6.01704 -141704 -146058 -69080 28522.9 -8157 4527.77 -7.41444 
742 2 12.3168 10.3822 6.41286 6.00949 -118455 -170149 90838.5 21875.7 -25063.1 -20122 -7.42502 
743 2 13.0779 9.18587 6.4095 6.02419 -134701 -150701 -106917 14839 3560.61 6099.67 -7.41258 
744 2 12.4216 7.92896 6.4074 6.01553 -125424 -159070 112617 -4065.62 5205.74 -11784.1 -7.42639 
745 2 13.1836 6.73282 6.4095 6.02418 -133861 -151583 -106917 -14221.4 -7061.98 34.1907 -7.41258 
746 2 12.5281 5.47553 6.41286 6.00947 -138241 -150354 90839.2 -33457.5 29957.4 -11644.7 -7.42501 
747 2 13.291 4.27978 6.41659 6.01396 -140050 -152028 -66175.8 -45626.9 -10529.7 -8005.88 -7.41461 
748 2 12.6369 3.02181 6.42209 5.99918 -143654 -143048 49643.7 -63757.7 44997.1 -14104.4 -7.42199 
749 2 13.4008 1.82647 6.42424 6.00352 -140803 -150586 -24076.9 -76843.6 -15461.5 -13122 -7.41673 
750 2 12.7484 0.567798 6.42764 6.00063 -140770 -143318 10350.2 -86168.9 35780.5 -7991.67 -7.41888 
780 2 14.3899 11.7021 6.42032 6.01129 -145853 -149708 71636.5 29532 -36620.9 -5279.44 -7.42374 
781 2 15.15 10.5054 6.41444 6.02325 -167421 -120159 -84085.4 26884.7 3487.91 -6417.57 -7.41369 
782 2 14.4947 9.24766 6.4074 6.0155 -147050 -137212 112619 16562.6 -12807.8 1383.06 -7.42639 
783 2 15.2551 8.05091 6.4095 6.02419 -159474 -125906 -106919 -445.004 3501.72 -6132.95 -7.41258 
784 2 14.6002 6.79298 6.4074 6.0155 -154058 -130321 112618 -12575.2 7601.9 10399.4 -7.42639 
785 2 15.3618 5.59662 6.41444 6.02326 -155194 -132491 -84085 -33755.4 -7302.23 188.539 -7.41369 
786 2 14.7075 4.33852 6.41534 6.00175 -155791 -131251 75760 -43082.1 31754.2 11721.3 -7.42393 
787 2 15.4704 3.14272 6.42332 6.01342 -146908 -141695 -42382.7 -63529.7 -9544.05 7330.21 -7.41565 
788 2 14.8173 1.88422 6.42441 5.9939 -147295 -137955 31838.1 -72561.7 44694.9 15425.2 -7.42056 
789 2 15.5815 0.68902 6.43011 6.0035 -140001 -143957 -8361.6 -82744.9 -22557.6 12236.4 -7.41751 
819 2 17.2208 11.8264 6.42332 6.01343 -198014 -90538.6 -42383.4 34049.5 -1576.04 -11930.7 -7.41565 
820 2 16.5667 10.5678 6.41534 6.00176 -174605 -112459 75760 32070.6 -26028.4 21639 -7.42393 
821 2 17.3258 9.37046 6.41659 6.01397 -188573 -103469 -66175.8 17791 12198.3 -5116.21 -7.41461 
822 2 16.6717 8.11185 6.41286 6.0095 -176205 -112335 90839.6 11359.2 -4894 31766.1 -7.42502 
823 2 17.432 6.91505 6.42161 6.01707 -169520 -118141 -69080.4 -12152.2 7999.17 4800.94 -7.41444 
824 2 16.7782 5.65647 6.42032 6.01128 -174373 -121109 71636.1 -13190.6 13738.9 34354.3 -7.42374 
825 2 17.5402 4.46047 6.43163 6.01228 -151432 -132219 -48271.5 -35596.1 217.145 15145.8 -7.41523 
826 2 16.8868 3.20191 6.43087 6.00057 -159380 -132150 40195.1 -37060.2 36217.2 30692 -7.42115 
827 2 17.6505 2.00672 6.44122 6.01058 -139495 -140295 -24116 -54265 -8120.58 19749 -7.41624 
828 2 16.998 0.747907 6.4389 6.00034 -144445 -141138 6210.59 -54423.9 33346.4 28258 -7.41845 
389 1 20.378 11.3888 2.97424 5.99727 -68858.6 -216606 12405.2 -43167.2 -10175.4 38205.1 -7.41908 
390 1 19.6142 10.1943 2.97515 6.007 -76898.2 -211687 -24317 -41196.8 9765.57 -11821.6 -7.41663 
391 1 20.2719 8.93846 2.96919 5.99615 -90438.6 -196518 26647.7 -22867.1 2615.49 49882.1 -7.42009 
392 1 19.5084 7.74365 2.9685 6.01253 -94007.9 -189661 -38305.5 -23167.3 16362.1 3762.49 -7.4157 
393 1 20.1642 6.48675 2.95813 6.00709 -123418 -169601 30439.7 1286.46 12055.7 42037.1 -7.42015 
394 1 19.4007 5.29176 2.95707 6.01119 -117891 -163675 -39100.9 -4315.78 13693.4 11147.6 -7.41545 
395 1 20.0546 4.03377 2.94661 6.01547 -144542 -147623 26360.3 21117.9 21163.8 27974.8 -7.41946 
396 1 19.2907 2.83894 2.94703 6.01515 -134916 -148064 -29532.2 15508.3 5747.64 12946.6 -7.41577 
397 1 19.9433 1.58019 2.93932 6.01811 -146440 -138431 11836.5 37232.6 22979.1 16359.2 -7.41803 
398 1 19.1789 0.385615 2.94343 6.01289 -141352 -141633 -8905.21 28310.9 -13673.1 14914.1 -7.4169 
428 1 21.7953 11.3243 2.97236 6.00066 -68082.5 -216005 10349 -44150.8 24811.5 -26990.5 -7.41888 
429 1 22.453 10.0684 2.96481 5.99872 -89331.9 -197354 -8763.04 -34741.2 12703.6 33803.9 -7.41755 
430 1 21.6889 8.87417 2.96103 6.00731 -81535.8 -198720 -11320.6 -35163.5 27157 -5235.43 -7.41713 
431 1 22.3448 7.61728 2.95022 6.00766 -110864 -173413 3944.33 -15611.5 5803.37 34461.6 -7.41797 
432 1 21.5809 6.42277 2.94763 6.0141 -106980 -172197 -22366.6 -19817 17313.4 2175.85 -7.416 
433 1 22.235 5.16491 2.93754 6.01662 -131766 -153743 18048.4 1665.11 5392.9 24691.4 -7.41832 
434 1 21.4711 3.9703 2.93632 6.02246 -128734 -156586 -24064.8 -3791.79 7969.92 2256.64 -7.41554 
435 1 22.1241 2.71181 2.92825 6.02063 -140907 -144570 21560.3 20365.8 15288.6 14936.8 -7.41803 
436 1 21.3597 1.51736 2.92965 6.02251 -139920 -148068 -12700 12122.8 -2476.47 5958.82 -7.41604 
437 1 22.012 0.258466 2.92451 6.02216 -145301 -143006 5477.85 31451.3 13757.8 8188.2 -7.41679 
467 1 24.6334 11.1986 2.96912 6.00497 -112882 -176559 -39025 -31388.9 18720.3 13156.7 -7.41588 
468 1 23.87 10.0039 2.9612 6.00669 -88805.5 -196589 16788.3 -30625.1 41644.4 -18410.9 -7.41928 
469 1 24.5257 8.74686 2.94964 6.01009 -117105 -166263 -22382.4 -18485.7 14096.4 12551 -7.41633 
470 1 23.7616 7.55249 2.94354 6.01535 -100130 -181142 -425.63 -20995.8 25278.3 -9389.42 -7.41734 
471 1 24.4158 6.2947 2.9335 6.01923 -126285 -158188 -4275.92 -8872.03 2460.8 13005.7 -7.41673 
472 1 23.6516 5.10036 2.92987 6.02301 -115963 -170821 -7230.76 -14142.1 10738.2 -6150.5 -7.41623 
473 1 24.3051 3.84216 2.92128 6.01984 -133626 -153948 11814.5 1666.44 11688.3 16782.7 -7.41715 
474 1 23.5406 2.64799 2.91986 6.02339 -130270 -164638 -9517.53 -1822 4450.64 6316.81 -7.41578 
475 1 24.1932 1.38931 2.91296 6.02055 -140309 -150184 9493.84 18404 15164.7 18988.7 -7.41667 
476 1 23.4284 0.195163 2.91586 6.019 -144828 -147575 1681.18 8192.44 -4729.4 20325.5 -7.41637 
499 1 26.0503 11.1347 2.96928 6.01033 -116622 -179337 46497.4 -25861.3 45055.2 -19075.7 -7.42183 
500 1 26.7055 9.87739 2.95717 6.01096 -139902 -143219 -39574.9 -18175.7 18372.8 -1006.31 -7.41552 
501 1 25.9424 8.68244 2.94748 6.01588 -113677 -176509 21065.4 -14967.6 35875.8 -11820 -7.41916 
502 1 26.5963 7.42442 2.93682 6.02232 -139279 -145975 -23735.8 -9482.63 6840.32 -1055.82 -7.41566 
503 1 25.8325 6.22989 2.92989 6.0208 -115094 -170219 14737.2 -13561.8 18611.5 -10147.1 -7.41767 
504 1 26.4859 4.97159 2.92102 6.02244 -144189 -148900 -7575.04 -10878.2 8620.76 6612.91 -7.41598 
505 1 25.7218 3.77732 2.91586 6.02145 -123564 -168563 4961.88 -13371.8 16947.3 -1433.7 -7.41645 
506 1 26.3746 2.5187 2.90775 6.01771 -145054 -148656 -1590.62 -2491.63 20004.5 14377.5 -7.41595 
507 1 25.6097 1.3248 2.9058 6.01794 -136886 -158092 -5125.33 -2772.39 8314.54 16720.4 -7.41568 
508 1 26.2613 0.0655655 2.90157 6.02252 -146191 -147031 -7004.4 7405.53 1472.97 14876.3 -7.41552 
858 2 18.6373 11.8901 6.42441 5.99387 -203125 -82126.3 31839.2 40331.5 -35706.1 30994.5 -7.42056 
859 2 19.3955 10.6922 6.42424 6.00351 -214797 -76633.1 -24078 34326.3 19094.4 -6828.72 -7.41673 
860 2 18.7423 9.43298 6.42209 5.99915 -198268 -88307.5 49643.4 32002.2 -10283.6 46020.6 -7.42199 
861 2 19.5016 8.23573 6.43088 6.005 -187776 -101747 -39025.8 12011.4 20753.7 9633.94 -7.41588 
862 2 18.8485 6.97671 6.43072 6.01031 -186099 -109913 46498 14054.8 6007.99 48557 -7.42183 
863 2 19.6097 5.78061 6.44283 6.01096 -158063 -125116 -39575.5 -7587.25 8315.3 16414.6 -7.41551 
864 2 18.9566 4.52183 6.44231 6.01244 -167944 -128795 34758.5 -2331.26 20356.3 36969.4 -7.42056 
865 2 19.7197 3.3267 6.45362 6.01533 -142029 -138855 -29131.6 -23488.5 -1814.71 14506.7 -7.41559 
866 2 19.0669 2.06792 6.45205 6.00985 -149669 -137499 16964 -20490 28053.7 22683.9 -7.41875 
867 2 19.8312 0.873321 6.46054 6.01838 -140798 -140392 -10738.2 -38172.1 -12767.6 11729.1 -7.41642 
898 2 20.8118 10.7565 6.42763 6.00064 -217327 -66779.3 10349.1 41977.4 -10969.2 34982.9 -7.41888 
899 2 21.5705 9.55893 6.43519 5.99872 -200494 -86276.9 -8763.26 29503.9 35626.3 -5900.23 -7.41755 
900 2 20.918 8.29948 6.4388 6.00668 -196262 -89115.1 16787.9 31302.6 4877.57 45270.2 -7.41928 
901 2 21.6787 7.10317 6.45036 6.01007 -169978 -113293 -22382.3 12125.2 17917.2 5932.01 -7.41633 
902 2 21.0261 5.844 6.45252 6.01584 -173778 -116308 21066 19663.5 7701.95 36979.1 -7.41916 
903 2 21.7887 4.64874 6.46318 6.02231 -152521 -132789 -23735.9 -1814.45 2505.62 6452 -7.41566 
904 2 21.1361 3.38974 6.46324 6.01873 -156952 -130146 23696.6 4299.94 12550.5 21979.5 -7.41867 
905 2 21.8998 2.19501 6.472 6.02526 -148570 -141470 -14743.5 -20572.5 -4129.55 5198.44 -7.41573 
906 2 21.2476 0.935997 6.46994 6.01941 -146508 -138314 10019.1 -12467.3 13060.1 12237.6 -7.41743 
937 2 23.6397 10.8829 6.43081 5.99613 -189768 -97120 26647.3 34541 44507 -22676.2 -7.42009 
938 2 22.9869 9.62353 6.43897 6.0073 -199964 -80247.3 -11320.2 33151.4 9044.29 26135.6 -7.41713 
939 2 23.7474 8.42709 6.44978 6.00764 -171367 -112941 3944.25 19264.2 32746.1 -12205.1 -7.41797 
940 2 23.0951 7.16771 6.45646 6.01532 -179092 -102142 -425.367 24549.3 4507.73 26586.3 -7.41734 
941 2 23.8573 5.97225 6.4665 6.0192 -157878 -126551 -4276.26 9344.67 12493.9 -4372.11 -7.41673 
942 2 23.2051 4.71295 6.47011 6.0208 -168268 -117137 14737.3 17046.4 517.781 21191.7 -7.41767 
943 2 23.9681 3.51793 6.47898 6.02245 -157088 -135953 -7575.36 -3311.37 10036.7 4159.46 -7.41598 
944 2 23.3162 2.25861 6.47986 6.02095 -159135 -127908 17425.3 1211.43 7064.31 21853.6 -7.41741 
945 2 24.0802 1.06403 6.48716 6.01978 -151615 -144063 -3354.89 -20048.7 2065.87 13702.4 -7.4159 
976 2 25.0562 10.9467 6.4315 6.01254 -185757 -97812 -38305.1 29837.7 11439.9 12288.2 -7.4157 
977 2 25.8168 9.75031 6.44187 6.00707 -156942 -135962 30439.4 20572.9 42432.8 -10578.9 -7.42015 
978 2 25.1639 8.49142 6.45237 6.01407 -173125 -106151 -22366.6 18425 10540.1 13906.1 -7.416 
979 2 25.9261 7.29598 6.46246 6.01658 -146935 -138714 18048.2 10370.7 24079.2 -7675.29 -7.41832 
980 2 25.2737 6.03687 6.47013 6.023 -169325 -117393 -7230.29 16686.8 42.7369 12374.9 -7.41623 
981 2 26.0366 4.84181 6.47872 6.01985 -147470 -140142 11813.9 9595.75 20378.5 1730.96 -7.41715 
982 2 25.3844 3.58257 6.48414 6.02148 -168901 -123246 4962.04 12786.1 7231.97 15394.1 -7.41645 
983 2 26.148 2.38791 6.49225 6.01772 -149942 -143816 -1590.75 343.496 22453.2 10136.2 -7.41595 
984 2 25.4965 1.12846 6.49415 6.02204 -155505 -136797 74.1936 1234.67 9364.5 22751.7 -7.41599 
1013 2 27.2334 9.814 6.44293 6.01122 -155903 -125684 -39101 17705.7 16501.6 6285.61 -7.41545 
1014 2 27.3427 7.36027 6.46368 6.02238 -152953 -132466 -24064.5 10142.1 5939.79 5774.16 -7.41554 
1015 2 27.4531 4.90684 6.48014 6.02343 -157669 -137328 -9517.62 13967 7696.46 696.485 -7.41578 
1016 2 27.5644 2.45339 6.4942 6.01791 -155196 -139754 -5125.26 7779.55 18637.3 -1159.2 -7.41568 
28 1 1.74266 23.2806 2.96989 6.0035 -140013 -143922 -8360.81 82704.6 22557.7 12235.7 -7.41751 
29 1 0.978471 22.0854 2.97559 5.99391 -147323 -137903 31838.7 72523.1 -44695.1 15424.1 -7.42056 
30 1 1.63157 20.8269 2.97668 6.01345 -146913 -141579 -42383.4 63528.5 9544.46 7328.9 -7.41565 
31 1 0.868625 19.6311 2.98466 6.00177 -155841 -131116 75759.7 43071.3 -31754.8 11720.7 -7.42393 
32 1 1.52298 18.373 2.98556 6.02326 -155248 -132379 -84085 33726.4 7302.16 188.545 -7.41369 
33 1 0.761358 17.1766 2.9926 6.01555 -154132 -130263 112618 12580.9 -7602.1 10400.6 -7.42639 
34 1 1.41627 15.9187 2.9905 6.0242 -159512 -125904 -106917 431.841 -3501.88 -6133.51 -7.41258 
35 1 0.655858 14.7219 2.9926 6.01556 -147120 -137312 112617 -16560.8 12808 1383.72 -7.42639 
36 1 1.31112 13.4642 2.98556 6.02326 -167369 -120314 -84084.5 -26893.9 -3488.2 -6418.64 -7.41369 
37 1 0.551089 12.2675 2.97968 6.01131 -145878 -149830 71635.2 -29552.3 36621.1 -5279.52 -7.42374 
68 1 3.15912 23.2217 2.9611 6.00031 -144432 -141049 6211.88 54398.6 -33346.7 28257.9 -7.41845 
69 1 3.8116 21.9629 2.95878 6.01053 -139439 -140182 -24115.5 54225 8119.98 19748.3 -7.41624 
70 1 3.04798 20.7677 2.96913 6.00059 -159394 -132030 40196.4 37050.9 -36216.7 30691.3 -7.42115 
71 1 3.70135 19.5091 2.96837 6.01226 -151424 -132110 -48272.1 35594.2 -217.054 15145.6 -7.41523 
72 1 2.93938 18.3131 2.97968 6.0113 -174436 -121090 71635.8 13232.8 -13738.6 34354.1 -7.42374 
73 1 3.59318 17.0546 2.97839 6.01705 -169513 -118105 -69080.3 12216.8 -7999.82 4800.22 -7.41444 
74 1 2.83287 15.8577 2.98715 6.00951 -176195 -112282 90838.2 -11301.8 4893.91 31766.2 -7.42502 
75 1 3.48695 14.5991 2.98341 6.01397 -188630 -103460 -66175.3 -17786.4 -12198.2 -5115.83 -7.41461 
76 1 2.72785 13.4018 2.98466 6.00176 -174522 -112407 75759 -32095.8 26027.8 21640.1 -7.42393 
77 1 3.38197 12.1432 2.97668 6.01345 -198040 -90580.5 -42382.9 -34125.2 1575.26 -11930.7 -7.41565 
107 1 5.99231 23.0963 2.93946 6.01841 -140734 -140337 -10738.3 38146.4 12767.3 11729.4 -7.41642 
108 1 5.22802 21.9017 2.94795 6.00988 -149630 -137520 16964.4 20478.8 -28053.8 22684.1 -7.41875 
109 1 5.88082 20.6429 2.94638 6.01534 -142124 -138924 -29131.7 23455.4 1815.5 14507 -7.41559 
110 1 5.11773 19.4478 2.95769 6.01244 -167976 -128861 34759.2 2331.5 -20355.8 36970.1 -7.42056 
111 1 5.77087 18.189 2.95717 6.01089 -158147 -125112 -39574.9 7616.6 -8315.12 16414.3 -7.41552 
112 1 5.00959 16.9929 2.96928 6.01033 -186100 -109805 46498.5 -14081 -6007.86 48556.6 -7.42183 
113 1 5.66274 15.7339 2.96912 6.005 -187726 -101694 -39024.9 -12045.7 -20753.9 9633.82 -7.41588 
114 1 4.90344 14.5366 2.97791 5.9992 -198313 -88318.1 49642.6 -32024.8 10283.5 46020.9 -7.42199 
115 1 5.55668 13.2774 2.97576 6.00353 -214679 -76609.3 -24077.9 -34305.1 -19095.1 -6828.74 -7.41673 
116 1 4.79842 12.0795 2.97559 5.9939 -203115 -82153.9 31838.5 -40277.5 35705.7 30994.3 -7.42056 
146 1 7.40871 23.0336 2.93006 6.01942 -146479 -138338 10019.1 12482.3 -13060.3 12237.7 -7.41743 
147 1 8.06095 21.7746 2.928 6.02524 -148488 -141498 -14743.8 20575.4 4128.94 5198.37 -7.41573 
148 1 7.29724 20.5799 2.93676 6.01874 -157034 -130113 23696.4 -4343.46 -12549.8 21979.6 -7.41867 
149 1 7.94983 19.3209 2.93682 6.02234 -152398 -132742 -23736.1 1814.18 -2506.57 6451.9 -7.41566 
150 1 7.18728 18.1256 2.94748 6.01581 -173813 -116357 21066.4 -19619.8 -7701.68 36979.3 -7.41916 
151 1 7.83988 16.8664 2.94964 6.01004 -169973 -113416 -22382.3 -12145.4 -17917.1 5933.31 -7.41633 
152 1 7.0791 15.6701 2.9612 6.00669 -196231 -89213.8 16789.1 -31301.7 -4877.7 45271.1 -7.41928 
153 1 7.73169 14.4107 2.96481 5.99872 -200522 -86330.6 -8763.88 -29481.9 -35625.9 -5899.76 -7.41756 
154 1 6.97296 13.2131 2.97236 6.00064 -217246 -66779.3 10349.8 -41979.6 10968.6 34983.2 -7.41888 
192 1 9.148 14.3461 2.96103 6.00732 -200008 -80348.4 -11319.7 -33151 -9044 26136.7 -7.41713 
509 2 1.41045e-06 15.9797 6.4055 6.0195 -141187 -141208 121159 -3.49068 0.0126765 0.255354 -7.4269 
510 2 0.104872 13.5255 6.41202 6.01416 -136916 -152794 96207.6 24750 24901.7 10065.5 -7.4254 
536 2 1.09046 23.3998 6.42782 5.99899 -140609 -147637 -6559.22 -80609.1 25814 20273.3 -7.41777 
537 2 1.85481 22.2047 6.42913 6.00127 -141995 -142870 25420.9 -74140.9 -42118.8 19251.3 -7.42005 
538 2 1.20166 20.9463 6.42292 6.00675 -138030 -154690 -42691.2 -57203.5 8386.82 16678.2 -7.41577 
539 2 1.96524 19.7509 6.42095 6.00537 -140513 -150707 63590.1 -46947.1 -40839 20477.3 -7.42312 
540 2 1.31026 18.4935 6.41448 6.01932 -130361 -158516 -84405 -25726 8299.46 5496.55 -7.41372 
541 2 2.07297 17.2977 6.41202 6.01415 -127327 -162370 96206.7 -19374.4 -21167.6 16533.2 -7.4254 
542 2 1.41681 16.0408 6.40949 6.02514 -123850 -161381 -106862 2114.52 14.1702 -6356.08 -7.41257 
543 2 2.17855 14.8447 6.41012 6.00888 -112851 -172525 98858.2 9423.91 8461.69 21203.3 -7.4255 
544 2 1.52181 13.5882 6.41448 6.01933 -129094 -159792 -84405 25140 610.815 -9936.08 -7.41372 
545 2 2.28334 12.3922 6.42095 6.00539 -107543 -183597 63589.5 27718.6 38153.6 25129.1 -7.42312 