  488  488   50    1
  0.2410786E+02  0.1921321E-08  0.3327826E-08  0.1840000E-08  0.5000000E-15
   1.0000000000000000E-004
  CAR 
 unknown system                          
   1952      1   1224

  0.1262379E-14  0.1262379E-14  0.1262379E-14  0.1000000E+01
    1      -20.597826   1.000000
    2      -20.500888   1.000000
    3      -20.499898   1.000000
    4      -20.459838   1.000000
    5      -20.363732   1.000000
    6      -20.362726   1.000000
    7      -20.305378   1.000000
    8      -20.305289   1.000000
    9      -20.210908   1.000000
   10      -20.210716   1.000000
   11      -20.208745   1.000000
   12      -20.207774   1.000000
   13      -20.206519   1.000000
   14      -20.205625   1.000000
   15      -20.169853   1.000000
   16      -20.169740   1.000000
   17      -20.076202   1.000000
   18      -20.076015   1.000000
   19      -20.074049   1.000000
   20      -20.073025   1.000000
   21      -20.071783   1.000000
   22      -20.070826   1.000000
   23      -19.917664   1.000000
   24      -19.917556   1.000000
   25      -19.917517   1.000000
   26      -19.917394   1.000000
   27      -19.785368   1.000000
   28      -19.785251   1.000000
   29      -19.785218   1.000000
   30      -19.785090   1.000000
   31      -19.724773   1.000000
   32      -19.724637   1.000000
   33      -19.594071   1.000000
   34      -19.593933   1.000000
   35      -19.435404   1.000000
   36      -19.435356   1.000000
   37      -19.435169   1.000000
   38      -19.435075   1.000000
   39      -19.434562   1.000000
   40      -19.433273   1.000000
   41      -19.338911   1.000000
   42      -19.338251   1.000000
   43      -19.337867   1.000000
   44      -19.336680   1.000000
   45      -19.307085   1.000000
   46      -19.307039   1.000000
   47      -19.306854   1.000000
   48      -19.306748   1.000000
   49      -19.306257   1.000000
   50      -19.304957   1.000000
   51      -19.211518   1.000000
   52      -19.210629   1.000000
   53      -19.210458   1.000000
   54      -19.209043   1.000000
   55      -19.052370   1.000000
   56      -19.052305   1.000000
   57      -19.051281   1.000000
   58      -19.051188   1.000000
   59      -19.049982   1.000000
   60      -19.049870   1.000000
   61      -18.927195   1.000000
   62      -18.927129   1.000000
   63      -18.926129   1.000000
   64      -18.926032   1.000000
   65      -18.924818   1.000000
   66      -18.924708   1.000000
   67      -18.765408   1.000000
   68      -18.765306   1.000000
   69      -18.765268   1.000000
   70      -18.765180   1.000000
   71      -18.642572   1.000000
   72      -18.642468   1.000000
   73      -18.642436   1.000000
   74      -18.642340   1.000000
   75      -18.574921   1.000000
   76      -18.574737   1.000000
   77      -18.573570   1.000000
   78      -18.573439   1.000000
   79      -18.453656   1.000000
   80      -18.453470   1.000000
   81      -18.452291   1.000000
   82      -18.452159   1.000000
   83      -18.197967   1.000000
   84      -18.197902   1.000000
   85      -18.079771   1.000000
   86      -18.079704   1.000000
   87      -18.004649   1.000000
   88      -18.004560   1.000000
   89      -17.915991   1.000000
   90      -17.915788   1.000000
   91      -17.915479   1.000000
   92      -17.915401   1.000000
   93      -17.912878   1.000000
   94      -17.912793   1.000000
   95      -17.911987   1.000000
   96      -17.911933   1.000000
   97      -17.911444   1.000000
   98      -17.911340   1.000000
   99      -17.910851   1.000000
  100      -17.910728   1.000000
  101      -17.887984   1.000000
  102      -17.887894   1.000000
  103      -17.800460   1.000000
  104      -17.800257   1.000000
  105      -17.799887   1.000000
  106      -17.799815   1.000000
  107      -17.796585   1.000000
  108      -17.796522   1.000000
  109      -17.795988   1.000000
  110      -17.795888   1.000000
  111      -17.795677   1.000000
  112      -17.795561   1.000000
  113      -17.794557   1.000000
  114      -17.794438   1.000000
  115      -17.631623   1.000000
  116      -17.631579   1.000000
  117      -17.631521   1.000000
  118      -17.631457   1.000000
  119      -17.518028   1.000000
  120      -17.517985   1.000000
  121      -17.517932   1.000000
  122      -17.517859   1.000000
  123      -17.173151   1.000000
  124      -17.173081   1.000000
  125      -17.169272   1.000000
  126      -17.169209   1.000000
  127      -17.168854   1.000000
  128      -17.168778   1.000000
  129      -17.078626   1.000000
  130      -17.078505   1.000000
  131      -17.077214   1.000000
  132      -17.077170   1.000000
  133      -17.063345   1.000000
  134      -17.063273   1.000000
  135      -17.059485   1.000000
  136      -17.059422   1.000000
  137      -17.059069   1.000000
  138      -17.058991   1.000000
  139      -16.969633   1.000000
  140      -16.969523   1.000000
  141      -16.968205   1.000000
  142      -16.968163   1.000000
  143      -16.897107   1.000000
  144      -16.897054   1.000000
  145      -16.897030   1.000000
  146      -16.896983   1.000000
  147      -16.789628   1.000000
  148      -16.789546   1.000000
  149      -16.789538   1.000000
  150      -16.789479   1.000000
  151      -16.531715   1.000000
  152      -16.531566   1.000000
  153      -16.531343   1.000000
  154      -16.531297   1.000000
  155      -16.427320   1.000000
  156      -16.427172   1.000000
  157      -16.426927   1.000000
  158      -16.426880   1.000000
  159      -16.099440   1.000000
  160      -16.098456   1.000000
  161      -16.096968   1.000000
  162      -16.095919   1.000000
  163      -16.091773   1.000000
  164      -16.090208   1.000000
  165      -16.005306   1.000000
  166      -16.003317   1.000000
  167      -16.003302   1.000000
  168      -16.002078   1.000000
  169      -16.001420   1.000000
  170      -16.001177   1.000000
  171      -15.999858   1.000000
  172      -15.998921   1.000000
  173      -15.997705   1.000000
  174      -15.996722   1.000000
  175      -15.992042   1.000000
  176      -15.990966   1.000000
  177      -15.906909   1.000000
  178      -15.906181   1.000000
  179      -15.903521   1.000000
  180      -15.902096   1.000000
  181      -15.901664   1.000000
  182      -15.901403   1.000000
  183      -15.751296   1.000000
  184      -15.751222   1.000000
  185      -15.751147   1.000000
  186      -15.750999   1.000000
  187      -15.746708   1.000000
  188      -15.746608   1.000000
  189      -15.746436   1.000000
  190      -15.746401   1.000000
  191      -15.743246   1.000000
  192      -15.743238   1.000000
  193      -15.741550   1.000000
  194      -15.741503   1.000000
  195      -15.654137   1.000000
  196      -15.654014   1.000000
  197      -15.653931   1.000000
  198      -15.653741   1.000000
  199      -15.649906   1.000000
  200      -15.649801   1.000000
  201      -15.649681   1.000000
  202      -15.649593   1.000000
  203      -15.646034   1.000000
  204      -15.646020   1.000000
  205      -15.644993   1.000000
  206      -15.644946   1.000000
  207      -15.315038   1.000000
  208      -15.314709   1.000000
  209      -15.312990   1.000000
  210      -15.312760   1.000000
  211      -15.295001   1.000000
  212      -15.294166   1.000000
  213      -15.220743   1.000000
  214      -15.220272   1.000000
  215      -15.219659   1.000000
  216      -15.219364   1.000000
  217      -15.202764   1.000000
  218      -15.202622   1.000000
  219      -15.182999   1.000000
  220      -15.182165   1.000000
  221      -14.974744   1.000000
  222      -14.974605   1.000000
  223      -14.974392   1.000000
  224      -14.974238   1.000000
  225      -14.751668   1.000000
  226      -14.751559   1.000000
  227      -14.742168   1.000000
  228      -14.742050   1.000000
  229      -14.740152   1.000000
  230      -14.739930   1.000000
  231      -14.665737   1.000000
  232      -14.665647   1.000000
  233      -14.656054   1.000000
  234      -14.655917   1.000000
  235      -14.655693   1.000000
  236      -14.655444   1.000000
  237      -14.590822   1.000000
  238      -14.590700   1.000000
  239      -14.590599   1.000000
  240      -14.590515   1.000000
  241      -14.232450   1.000000
  242      -14.232104   1.000000
  243      -14.149720   1.000000
  244      -14.149617   1.000000
  245      -14.142162   1.000000
  246      -14.141778   1.000000
  247      -14.079632   1.000000
  248      -14.079510   1.000000
  249      -14.062188   1.000000
  250      -14.062069   1.000000
  251      -13.875186   1.000000
  252      -13.875128   1.000000
  253      -13.875068   1.000000
  254      -13.874954   1.000000
  255      -13.508477   1.000000
  256      -13.508389   1.000000
  257      -13.507980   1.000000
  258      -13.507881   1.000000
  259      -13.433017   1.000000
  260      -13.431774   1.000000
  261      -13.361328   1.000000
  262      -13.361183   1.000000
  263      -13.360116   1.000000
  264      -13.359833   1.000000
  265      -13.358243   1.000000
  266      -13.357147   1.000000
  267      -13.356899   1.000000
  268      -13.356879   1.000000
  269      -13.356656   1.000000
  270      -13.356126   1.000000
  271      -13.355931   1.000000
  272      -13.355319   1.000000
  273      -13.355190   1.000000
  274      -13.353222   1.000000
  275      -13.283462   1.000000
  276      -13.282771   1.000000
  277      -13.281378   1.000000
  278      -13.281111   1.000000
  279      -13.280810   1.000000
  280      -13.279991   1.000000
  281      -13.279656   1.000000
  282      -13.279461   1.000000
  283      -13.278615   1.000000
  284      -13.276782   1.000000
  285      -13.276007   1.000000
  286      -13.275459   1.000000
  287      -13.274396   1.000000
  288      -13.274179   1.000000
  289      -13.228545   1.000000
  290      -13.228303   1.000000
  291      -13.149122   1.000000
  292      -13.148971   1.000000
  293      -13.147179   1.000000
  294      -13.147164   1.000000
  295      -13.063586   1.000000
  296      -13.063542   1.000000
  297      -13.060209   1.000000
  298      -13.059933   1.000000
  299      -12.942594   1.000000
  300      -12.942260   1.000000
  301      -12.940943   1.000000
  302      -12.940892   1.000000
  303      -12.936716   1.000000
  304      -12.936665   1.000000
  305      -12.920912   1.000000
  306      -12.920685   1.000000
  307      -12.916658   1.000000
  308      -12.916395   1.000000
  309      -12.914976   1.000000
  310      -12.914658   1.000000
  311      -12.732821   1.000000
  312      -12.732734   1.000000
  313      -12.731441   1.000000
  314      -12.731347   1.000000
  315      -12.731235   1.000000
  316      -12.731149   1.000000
  317      -12.730875   1.000000
  318      -12.730849   1.000000
  319      -12.728348   1.000000
  320      -12.728305   1.000000
  321      -12.728075   1.000000
  322      -12.727921   1.000000
  323      -12.442993   1.000000
  324      -12.442874   1.000000
  325      -12.441813   1.000000
  326      -12.441605   1.000000
  327      -12.103854   1.000000
  328      -12.103784   1.000000
  329      -12.103737   1.000000
  330      -12.103638   1.000000
  331      -12.031582   1.000000
  332      -12.031538   1.000000
  333      -12.031446   1.000000
  334      -12.031415   1.000000
  335      -12.012486   1.000000
  336      -12.012402   1.000000
  337      -12.011636   1.000000
  338      -12.011620   1.000000
  339      -11.906351   1.000000
  340      -11.906074   1.000000
  341      -11.905741   1.000000
  342      -11.905468   1.000000
  343      -11.891947   1.000000
  344      -11.891927   1.000000
  345      -11.891148   1.000000
  346      -11.891074   1.000000
  347      -11.648311   1.000000
  348      -11.648249   1.000000
  349      -11.647979   1.000000
  350      -11.647935   1.000000
  351      -11.422723   1.000000
  352      -11.422560   1.000000
  353      -11.422404   1.000000
  354      -11.422324   1.000000
  355      -11.346913   1.000000
  356      -11.346859   1.000000
  357      -11.332893   1.000000
  358      -11.332813   1.000000
  359      -10.869412   1.000000
  360      -10.869390   1.000000
  361      -10.865582   1.000000
  362      -10.865558   1.000000
  363      -10.864170   1.000000
  364      -10.864069   1.000000
  365      -10.824691   1.000000
  366      -10.824680   1.000000
  367      -10.820040   1.000000
  368      -10.820023   1.000000
  369      -10.815537   1.000000
  370      -10.815449   1.000000
  371      -10.755495   1.000000
  372      -10.755303   1.000000
  373      -10.754666   1.000000
  374      -10.754394   1.000000
  375      -10.738819   1.000000
  376      -10.738669   1.000000
  377      -10.738516   1.000000
  378      -10.738382   1.000000
  379      -10.735018   1.000000
  380      -10.734902   1.000000
  381      -10.734678   1.000000
  382      -10.734545   1.000000
  383      -10.703144   1.000000
  384      -10.703003   1.000000
  385      -10.702995   1.000000
  386      -10.702981   1.000000
  387      -10.697986   1.000000
  388      -10.697936   1.000000
  389      -10.687938   1.000000
  390      -10.687903   1.000000
  391      -10.687856   1.000000
  392      -10.687753   1.000000
  393      -10.640284   1.000000
  394      -10.640172   1.000000
  395      -10.640145   1.000000
  396      -10.640096   1.000000
  397      -10.636472   1.000000
  398      -10.636425   1.000000
  399      -10.567844   1.000000
  400      -10.567789   1.000000
  401      -10.567704   1.000000
  402      -10.567613   1.000000
  403      -10.562584   1.000000
  404      -10.562157   1.000000
  405      -10.561939   1.000000
  406      -10.561611   1.000000
  407      -10.408717   1.000000
  408      -10.408584   1.000000
  409      -10.408421   1.000000
  410      -10.408300   1.000000
  411      -10.405581   1.000000
  412      -10.405532   1.000000
  413      -10.405518   1.000000
  414      -10.405444   1.000000
  415      -10.403027   1.000000
  416      -10.402961   1.000000
  417      -10.402773   1.000000
  418      -10.402711   1.000000
  419      -10.274377   1.000000
  420      -10.274262   1.000000
  421      -10.274257   1.000000
  422      -10.274132   1.000000
  423      -10.214148   1.000000
  424      -10.214135   1.000000
  425      -10.213586   1.000000
  426      -10.213567   1.000000
  427      -10.008602   1.000000
  428      -10.008231   1.000000
  429      -10.007539   1.000000
  430      -10.007179   1.000000
  431       -9.587076   1.000000
  432       -9.586994   1.000000
  433       -9.560528   1.000000
  434       -9.560443   1.000000
  435       -9.560185   1.000000
  436       -9.560094   1.000000
  437       -9.541734   1.000000
  438       -9.541700   1.000000
  439       -9.446265   1.000000
  440       -9.446207   1.000000
  441       -9.446021   1.000000
  442       -9.445909   1.000000
  443       -9.351409   1.000000
  444       -9.351395   1.000000
  445       -9.351332   1.000000
  446       -9.351268   1.000000
  447       -9.351170   1.000000
  448       -9.351138   1.000000
  449       -9.350130   1.000000
  450       -9.350083   1.000000
  451       -9.343595   1.000000
  452       -9.343570   1.000000
  453       -9.343259   1.000000
  454       -9.343247   1.000000
  455       -9.279777   1.000000
  456       -9.279716   1.000000
  457       -9.279574   1.000000
  458       -9.279462   1.000000
  459       -9.158921   1.000000
  460       -9.158798   1.000000
  461       -9.158271   1.000000
  462       -9.158162   1.000000
  463       -9.076161   1.000000
  464       -9.059454   1.000000
  465       -9.059431   1.000000
  466       -9.059038   1.000000
  467       -9.058990   1.000000
  468       -9.005666   1.000000
  469       -9.005573   1.000000
  470       -9.005342   1.000000
  471       -9.005313   1.000000
  472       -9.005180   1.000000
  473       -9.005165   1.000000
  474       -9.005087   1.000000
  475       -9.004977   1.000000
  476       -8.987477   1.000000
  477       -8.987313   1.000000
  478       -8.987243   1.000000
  479       -8.987169   1.000000
  480       -8.986172   1.000000
  481       -8.986098   1.000000
  482       -8.985911   1.000000
  483       -8.985844   1.000000
  484       -8.958670   1.000000
  485       -8.958139   1.000000
  486       -8.885875   1.000000
  487       -8.885848   1.000000
  488       -8.885800   1.000000
  489       -8.885784   1.000000
  490       -8.737323   1.000000
  491       -8.737311   1.000000
  492       -8.737295   1.000000
  493       -8.737269   1.000000
  494       -8.723416   1.000000
  495       -8.723311   1.000000
  496       -8.609148   1.000000
  497       -8.608915   1.000000
  498       -8.606839   1.000000
  499       -8.606643   1.000000
  500       -8.605492   1.000000
  501       -8.605380   1.000000
  502       -8.433715   1.000000
  503       -8.433581   1.000000
  504       -8.433403   1.000000
  505       -8.433299   1.000000
  506       -8.381810   1.000000
  507       -8.381707   1.000000
  508       -8.381580   1.000000
  509       -8.381515   1.000000
  510       -8.314008   1.000000
  511       -8.313936   1.000000
  512       -8.307068   1.000000
  513       -8.307031   1.000000
  514       -8.306965   1.000000
  515       -8.306954   1.000000
  516       -8.280985   1.000000
  517       -8.280913   1.000000
  518       -8.271559   1.000000
  519       -8.271521   1.000000
  520       -8.271499   1.000000
  521       -8.271458   1.000000
  522       -8.259197   1.000000
  523       -8.259097   1.000000
  524       -8.258997   1.000000
  525       -8.258877   1.000000
  526       -8.155437   1.000000
  527       -8.146111   1.000000
  528       -8.145954   1.000000
  529       -8.143151   1.000000
  530       -8.142976   1.000000
  531       -8.097285   1.000000
  532       -8.097158   1.000000
  533       -8.097118   1.000000
  534       -8.097039   1.000000
  535       -8.075871   1.000000
  536       -8.075726   1.000000
  537       -8.075661   1.000000
  538       -8.075555   1.000000
  539       -8.075434   1.000000
  540       -8.075309   1.000000
  541       -8.075221   1.000000
  542       -8.075047   1.000000
  543       -8.041346   1.000000
  544       -8.040554   1.000000
  545       -8.029126   1.000000
  546       -8.028995   1.000000
  547       -7.906236   1.000000
  548       -7.906144   1.000000
  549       -7.905972   1.000000
  550       -7.905910   1.000000
  551       -7.854518   1.000000
  552       -7.854394   1.000000
  553       -7.854134   1.000000
  554       -7.853962   1.000000
  555       -7.813404   1.000000
  556       -7.813097   1.000000
  557       -7.809258   1.000000
  558       -7.809155   1.000000
  559       -7.806100   1.000000
  560       -7.806026   1.000000
  561       -7.802865   1.000000
  562       -7.802583   1.000000
  563       -7.762985   1.000000
  564       -7.762691   1.000000
  565       -7.703145   1.000000
  566       -7.703004   1.000000
  567       -7.701032   1.000000
  568       -7.699847   1.000000
  569       -7.698797   1.000000
  570       -7.697438   1.000000
  571       -7.686257   1.000000
  572       -7.686101   1.000000
  573       -7.685922   1.000000
  574       -7.685825   1.000000
  575       -7.684343   1.000000
  576       -7.683305   1.000000
  577       -7.667255   1.000000
  578       -7.667244   1.000000
  579       -7.667106   1.000000
  580       -7.667013   1.000000
  581       -7.658848   1.000000
  582       -7.658539   1.000000
  583       -7.658319   1.000000
  584       -7.657990   1.000000
  585       -7.652450   1.000000
  586       -7.652257   1.000000
  587       -7.652171   1.000000
  588       -7.652083   1.000000
  589       -7.647127   1.000000
  590       -7.646910   1.000000
  591       -7.646905   1.000000
  592       -7.646801   1.000000
  593       -7.642721   1.000000
  594       -7.642597   1.000000
  595       -7.642459   1.000000
  596       -7.642385   1.000000
  597       -7.570449   1.000000
  598       -7.569378   1.000000
  599       -7.569162   1.000000
  600       -7.568561   1.000000
  601       -7.481189   1.000000
  602       -7.475292   1.000000
  603       -7.462071   1.000000
  604       -7.456337   1.000000
  605       -7.424240   1.000000
  606       -7.424221   1.000000
  607       -7.424156   1.000000
  608       -7.424126   1.000000
  609       -7.416513   1.000000
  610       -7.416470   1.000000
  611       -7.416340   1.000000
  612       -7.416258   1.000000
  613       -7.414931   1.000000
  614       -7.414382   1.000000
  615       -7.413787   1.000000
  616       -7.413692   1.000000
  617       -7.413530   1.000000
  618       -7.413416   1.000000
  619       -7.409736   1.000000
  620       -7.409556   1.000000
  621       -7.409425   1.000000
  622       -7.409205   1.000000
  623       -7.407055   1.000000
  624       -7.406818   1.000000
  625       -7.406728   1.000000
  626       -7.406527   1.000000
  627       -7.406185   1.000000
  628       -7.405976   1.000000
  629       -7.399318   1.000000
  630       -7.399283   1.000000
  631       -7.395675   1.000000
  632       -7.395398   1.000000
  633       -7.393174   1.000000
  634       -7.392916   1.000000
  635       -7.363688   1.000000
  636       -7.363538   1.000000
  637       -7.363343   1.000000
  638       -7.363229   1.000000
  639       -7.296940   1.000000
  640       -7.296894   1.000000
  641       -7.296867   1.000000
  642       -7.296720   1.000000
  643       -7.232462   1.000000
  644       -7.232386   1.000000
  645       -7.230015   1.000000
  646       -7.229909   1.000000
  647       -7.228948   1.000000
  648       -7.228886   1.000000
  649       -7.141028   1.000000
  650       -7.140911   1.000000
  651       -7.106237   1.000000
  652       -7.106195   1.000000
  653       -7.105911   1.000000
  654       -7.105857   1.000000
  655       -6.971817   1.000000
  656       -6.971783   1.000000
  657       -6.971673   1.000000
  658       -6.971576   1.000000
  659       -6.971104   1.000000
  660       -6.971061   1.000000
  661       -6.970716   1.000000
  662       -6.970676   1.000000
  663       -6.954674   1.000000
  664       -6.954619   1.000000
  665       -6.954519   1.000000
  666       -6.954464   1.000000
  667       -6.899846   1.000000
  668       -6.899730   1.000000
  669       -6.899725   1.000000
  670       -6.899636   1.000000
  671       -6.895320   1.000000
  672       -6.895269   1.000000
  673       -6.895206   1.000000
  674       -6.895165   1.000000
  675       -6.810160   1.000000
  676       -6.810074   1.000000
  677       -6.809801   1.000000
  678       -6.809646   1.000000
  679       -6.808125   1.000000
  680       -6.807023   1.000000
  681       -6.800856   1.000000
  682       -6.800597   1.000000
  683       -6.800500   1.000000
  684       -6.800441   1.000000
  685       -6.780000   1.000000
  686       -6.779891   1.000000
  687       -6.779821   1.000000
  688       -6.779703   1.000000
  689       -6.779627   1.000000
  690       -6.779476   1.000000
  691       -6.779382   1.000000
  692       -6.779305   1.000000
  693       -6.755729   1.000000
  694       -6.755615   1.000000
  695       -6.755571   1.000000
  696       -6.755432   1.000000
  697       -6.699179   1.000000
  698       -6.698273   1.000000
  699       -6.696490   1.000000
  700       -6.695117   1.000000
  701       -6.682500   1.000000
  702       -6.682451   1.000000
  703       -6.682306   1.000000
  704       -6.682184   1.000000
  705       -6.673510   1.000000
  706       -6.673393   1.000000
  707       -6.672474   1.000000
  708       -6.672344   1.000000
  709       -6.497834   1.000000
  710       -6.497773   1.000000
  711       -6.497116   1.000000
  712       -6.497063   1.000000
  713       -6.372789   1.000000
  714       -6.372701   1.000000
  715       -6.370258   1.000000
  716       -6.370159   1.000000
  717       -6.369130   1.000000
  718       -6.369041   1.000000
  719       -6.359550   1.000000
  720       -6.359477   1.000000
  721       -6.359303   1.000000
  722       -6.359162   1.000000
  723       -6.328653   1.000000
  724       -6.328629   1.000000
  725       -6.327751   1.000000
  726       -6.327742   1.000000
  727       -6.286231   1.000000
  728       -6.286206   1.000000
  729       -6.286144   1.000000
  730       -6.286045   1.000000
  731       -6.235157   1.000000
  732       -6.235099   1.000000
  733       -6.189553   1.000000
  734       -6.189527   1.000000
  735       -6.189467   1.000000
  736       -6.189271   1.000000
  737       -6.053911   1.000000
  738       -6.053823   1.000000
  739       -6.053793   1.000000
  740       -6.053720   1.000000
  741       -6.027568   1.000000
  742       -6.027514   1.000000
  743       -6.003426   1.000000
  744       -6.003086   1.000000
  745       -6.002844   1.000000
  746       -6.002417   1.000000
  747       -5.924811   1.000000
  748       -5.924728   1.000000
  749       -5.924522   1.000000
  750       -5.924479   1.000000
  751       -5.920202   1.000000
  752       -5.920036   1.000000
  753       -5.919815   1.000000
  754       -5.919657   1.000000
  755       -5.919029   1.000000
  756       -5.918911   1.000000
  757       -5.913233   1.000000
  758       -5.913200   1.000000
  759       -5.836399   1.000000
  760       -5.836187   1.000000
  761       -5.835238   1.000000
  762       -5.835127   1.000000
  763       -5.755240   1.000000
  764       -5.755027   1.000000
  765       -5.754987   1.000000
  766       -5.754862   1.000000
  767       -5.747432   1.000000
  768       -5.747250   1.000000
  769       -5.746926   1.000000
  770       -5.746744   1.000000
  771       -5.736579   1.000000
  772       -5.736568   1.000000
  773       -5.736198   1.000000
  774       -5.736143   1.000000
  775       -5.715083   1.000000
  776       -5.715007   1.000000
  777       -5.714922   1.000000
  778       -5.714876   1.000000
  779       -5.589083   1.000000
  780       -5.588999   1.000000
  781       -5.588874   1.000000
  782       -5.588793   1.000000
  783       -5.416258   1.000000
  784       -5.416200   1.000000
  785       -5.406684   1.000000
  786       -5.406083   1.000000
  787       -5.405579   1.000000
  788       -5.405195   1.000000
  789       -5.384321   1.000000
  790       -5.384130   1.000000
  791       -5.378410   1.000000
  792       -5.377815   1.000000
  793       -5.377296   1.000000
  794       -5.377142   1.000000
  795       -5.368555   1.000000
  796       -5.368503   1.000000
  797       -5.271367   1.000000
  798       -5.271238   1.000000
  799       -5.271202   1.000000
  800       -5.271159   1.000000
  801       -5.223711   1.000000
  802       -5.223667   1.000000
  803       -5.179071   1.000000
  804       -5.178898   1.000000
  805       -5.178597   1.000000
  806       -5.178418   1.000000
  807       -5.130178   1.000000
  808       -5.130011   1.000000
  809       -5.129449   1.000000
  810       -5.129384   1.000000
  811       -5.122907   1.000000
  812       -5.122828   1.000000
  813       -5.120943   1.000000
  814       -5.120877   1.000000
  815       -5.120835   1.000000
  816       -5.120716   1.000000
  817       -5.117296   1.000000
  818       -5.117118   1.000000
  819       -5.116522   1.000000
  820       -5.116483   1.000000
  821       -5.112405   1.000000
  822       -5.112366   1.000000
  823       -5.066365   1.000000
  824       -5.066325   1.000000
  825       -5.059753   1.000000
  826       -5.059621   1.000000
  827       -5.059372   1.000000
  828       -5.059214   1.000000
  829       -5.019678   1.000000
  830       -5.019459   1.000000
  831       -5.018632   1.000000
  832       -5.018496   1.000000
  833       -4.828661   1.000000
  834       -4.828473   1.000000
  835       -4.824725   1.000000
  836       -4.824510   1.000000
  837       -4.823429   1.000000
  838       -4.822746   1.000000
  839       -4.822572   1.000000
  840       -4.822483   1.000000
  841       -4.803557   1.000000
  842       -4.803451   1.000000
  843       -4.803293   1.000000
  844       -4.803234   1.000000
  845       -4.802620   1.000000
  846       -4.802583   1.000000
  847       -4.802510   1.000000
  848       -4.802418   1.000000
  849       -4.797372   1.000000
  850       -4.797133   1.000000
  851       -4.796640   1.000000
  852       -4.796325   1.000000
  853       -4.573944   1.000000
  854       -4.573753   1.000000
  855       -4.573638   1.000000
  856       -4.573560   1.000000
  857       -4.388739   1.000000
  858       -4.388584   1.000000
  859       -4.385083   1.000000
  860       -4.384897   1.000000
  861       -4.374417   1.000000
  862       -4.374278   1.000000
  863       -4.374055   1.000000
  864       -4.373976   1.000000
  865       -4.307023   1.000000
  866       -4.306951   1.000000
  867       -4.299969   1.000000
  868       -4.299854   1.000000
  869       -4.299452   1.000000
  870       -4.299419   1.000000
  871       -4.286257   1.000000
  872       -4.286164   1.000000
  873       -4.285197   1.000000
  874       -4.285101   1.000000
  875       -4.224335   1.000000
  876       -4.223154   1.000000
  877       -4.219025   1.000000
  878       -4.217726   1.000000
  879       -4.096447   1.000000
  880       -4.095795   1.000000
  881       -4.092708   1.000000
  882       -4.091851   1.000000
  883       -4.084379   1.000000
  884       -4.081103   1.000000
  885       -4.076392   1.000000
  886       -4.076257   1.000000
  887       -4.076107   1.000000
  888       -4.076003   1.000000
  889       -4.023249   1.000000
  890       -4.023092   1.000000
  891       -4.004215   1.000000
  892       -3.999924   1.000000
  893       -3.984446   1.000000
  894       -3.984279   1.000000
  895       -3.943951   1.000000
  896       -3.941562   1.000000
  897       -3.783748   1.000000
  898       -3.783400   1.000000
  899       -3.675847   1.000000
  900       -3.675559   1.000000
  901       -3.672769   1.000000