       N       E                     dE             d eps       ncg     rms          rms(c)
DAV:   1     0.143521639911E+05    0.14352E+05   -0.75106E+05  2712   0.107E+03
DAV:   2    -0.258965558896E+04   -0.16942E+05   -0.16355E+05  3336   0.300E+02
DAV:   3    -0.473479290582E+04   -0.21451E+04   -0.21304E+04  2868   0.111E+02
DAV:   4    -0.480419868314E+04   -0.69406E+02   -0.69087E+02  3036   0.232E+01
DAV:   5    -0.480670040554E+04   -0.25017E+01   -0.24990E+01  3360   0.363E+00    0.998E+01
RMM:   6    -0.458291716807E+04    0.22378E+03   -0.21844E+02  2448   0.108E+01    0.590E+01
RMM:   7    -0.450407010287E+04    0.78847E+02   -0.34387E+02  2448   0.134E+01    0.144E+01
RMM:   8    -0.450276953639E+04    0.13006E+01   -0.71172E+00  2488   0.213E+00    0.132E+00
RMM:   9    -0.450259996509E+04    0.16957E+00   -0.54061E-01  2580   0.505E-01    0.815E-01
RMM:  10    -0.450246109218E+04    0.13887E+00   -0.23141E-01  2448   0.306E-01    0.496E-01
RMM:  11    -0.450244028882E+04    0.20803E-01   -0.82699E-02  2485   0.157E-01    0.292E-01
RMM:  12    -0.450246625236E+04   -0.25964E-01   -0.55552E-02  2448   0.118E-01    0.188E-01
RMM:  13    -0.450249727080E+04   -0.31018E-01   -0.72007E-03  2457   0.557E-02    0.124E-01
RMM:  14    -0.450251341583E+04   -0.16145E-01   -0.25341E-03  2458   0.322E-02    0.499E-02
RMM:  15    -0.450253992820E+04   -0.26512E-01   -0.31774E-03  2448   0.276E-02    0.433E-02
RMM:  16    -0.450254530084E+04   -0.53726E-02   -0.40428E-04  2490   0.111E-02    0.134E-02
RMM:  17    -0.450254954208E+04   -0.42412E-02   -0.11327E-04  2519   0.666E-03    0.635E-03
RMM:  18    -0.450255074853E+04   -0.12064E-02   -0.22878E-05  2473   0.437E-03    0.205E-03
RMM:  19    -0.450255085769E+04   -0.10916E-03   -0.30781E-06  2448   0.154E-03    0.291E-03
RMM:  20    -0.450255088153E+04   -0.23834E-04   -0.82907E-07  2206   0.840E-04    0.317E-04
RMM:  21    -0.450255088214E+04   -0.61060E-06   -0.27228E-08  1466   0.163E-04    0.145E-04
RMM:  22    -0.450255088242E+04   -0.28743E-06   -0.92892E-09   972   0.912E-05    0.386E-05
RMM:  23    -0.450255088244E+04   -0.11234E-07   -0.31842E-09   708   0.698E-05
   1 F= -.45446610E+04 E0= -.45446610E+04  d E =-.454466E+04
       N       E                     dE             d eps       ncg     rms          rms(c)
DAV:   1    -0.450239721717E+04    0.15367E+00   -0.43050E+01  2580   0.650E+00    0.216E+00
RMM:   2    -0.450233106285E+04    0.66154E-01   -0.10371E+00  2448   0.918E-01    0.138E+00
RMM:   3    -0.450224260253E+04    0.88460E-01   -0.22469E-01  2448   0.369E-01    0.284E-01
RMM:   4    -0.450224236062E+04    0.24191E-03   -0.10860E-02  2566   0.826E-02    0.169E-01
RMM:   5    -0.450224471818E+04   -0.23576E-02   -0.18826E-03  2472   0.338E-02    0.555E-02
RMM:   6    -0.450224505134E+04   -0.33315E-03   -0.40442E-04  2473   0.151E-02    0.215E-02
RMM:   7    -0.450224659166E+04   -0.15403E-02   -0.22221E-04  2474   0.932E-03    0.166E-02
RMM:   8    -0.450224724066E+04   -0.64900E-03   -0.10303E-04  2448   0.572E-03    0.834E-03
RMM:   9    -0.450224779877E+04   -0.55811E-03   -0.11249E-04  2448   0.502E-03    0.639E-03
RMM:  10    -0.450224792661E+04   -0.12784E-03   -0.13589E-05  2490   0.235E-03    0.303E-03
RMM:  11    -0.450224794744E+04   -0.20829E-04   -0.46998E-06  2448   0.133E-03    0.207E-03
RMM:  12    -0.450224798304E+04   -0.35601E-04   -0.19570E-06  2366   0.134E-03    0.113E-03
RMM:  13    -0.450224799326E+04   -0.10219E-04   -0.23264E-07  1674   0.512E-04    0.723E-04
RMM:  14    -0.450224800552E+04   -0.12255E-04   -0.29175E-07  1716   0.519E-04    0.395E-04
RMM:  15    -0.450224801001E+04   -0.44921E-05   -0.37408E-08  1453   0.194E-04    0.141E-04
RMM:  16    -0.450224801199E+04   -0.19774E-05   -0.28477E-08  1432   0.150E-04    0.127E-04
RMM:  17    -0.450224801212E+04   -0.13705E-06   -0.27354E-09   622   0.606E-05    0.521E-05
RMM:  18    -0.450224801213E+04   -0.10186E-07   -0.82856E-10   505   0.556E-05
   2 F= -.45443181E+04 E0= -.45443181E+04  d E =0.342892E+00
       N       E                     dE             d eps       ncg     rms          rms(c)
DAV:   1    -0.450269910676E+04   -0.45109E+00   -0.22867E+01  2520   0.471E+00    0.159E+00
RMM:   2    -0.450265853128E+04    0.40575E-01   -0.50128E-01  2448   0.652E-01    0.999E-01
RMM:   3    -0.450261228793E+04    0.46243E-01   -0.13048E-01  2448   0.280E-01    0.175E-01
RMM:   4    -0.450261221171E+04    0.76226E-04   -0.48733E-03  2587   0.553E-02    0.114E-01
RMM:   5    -0.450261267808E+04   -0.46637E-03   -0.11128E-03  2498   0.261E-02    0.418E-02
RMM:   6    -0.450261285533E+04   -0.17725E-03   -0.19933E-04  2462   0.105E-02    0.165E-02
RMM:   7    -0.450261355887E+04   -0.70354E-03   -0.87857E-05  2484   0.623E-03    0.106E-02
RMM:   8    -0.450261394411E+04   -0.38524E-03   -0.43490E-05  2448   0.386E-03    0.663E-03
RMM:   9    -0.450261426616E+04   -0.32206E-03   -0.50941E-05  2448   0.377E-03    0.538E-03
RMM:  10    -0.450261437428E+04   -0.10812E-03   -0.80877E-06  2466   0.165E-03    0.279E-03
RMM:  11    -0.450261438500E+04   -0.10713E-04   -0.20380E-06  2432   0.873E-04    0.163E-03
RMM:  12    -0.450261442319E+04   -0.38190E-04   -0.11187E-06  2212   0.797E-04    0.934E-04
RMM:  13    -0.450261443207E+04   -0.88818E-05   -0.88384E-08  1480   0.246E-04    0.540E-04
RMM:  14    -0.450261444188E+04   -0.98088E-05   -0.15083E-07  1588   0.276E-04    0.241E-04
RMM:  15    -0.450261444486E+04   -0.29783E-05   -0.37868E-08  1354   0.136E-04    0.113E-04
RMM:  16    -0.450261444522E+04   -0.36377E-06   -0.14376E-08  1229   0.934E-05    0.929E-05
RMM:  17    -0.450261444532E+04   -0.97731E-07   -0.32470E-09   610   0.581E-05
   3 F= -.45447161E+04 E0= -.45447161E+04  d E =-.550782E-01
       N       E                     dE             d eps       ncg     rms          rms(c)
DAV:   1    -0.450261321702E+04    0.12282E-02   -0.28522E-02  2544   0.167E-01    0.562E-02
RMM:   2    -0.450261317301E+04    0.44013E-04   -0.62414E-04  2448   0.231E-02    0.355E-02
RMM:   3    -0.450261312030E+04    0.52706E-04   -0.15935E-04  2448   0.980E-03    0.654E-03
RMM:   4    -0.450261312007E+04    0.22913E-06   -0.57636E-06  2580   0.193E-03    0.419E-03
RMM:   5    -0.450261312100E+04   -0.92902E-06   -0.13052E-06  2448   0.894E-04    0.150E-03
RMM:   6    -0.450261312173E+04   -0.73097E-06   -0.22783E-07  1490   0.382E-04    0.568E-04
RMM:   7    -0.450261312339E+04   -0.16589E-05   -0.17917E-07  1632   0.285E-04    0.378E-04
RMM:   8    -0.450261312397E+04   -0.57745E-06   -0.40660E-08  1390   0.146E-04    0.294E-04
RMM:   9    -0.450261312492E+04   -0.94745E-06   -0.11862E-07  1529   0.179E-04    0.207E-04
RMM:  10    -0.450261312497E+04   -0.51543E-07   -0.72525E-09   770   0.718E-05
   4 F= -.45447157E+04 E0= -.45447157E+04  d E =-.546431E-01
       N       E                     dE             d eps       ncg     rms          rms(c)
DAV:   1    -0.450280882306E+04   -0.19570E+00   -0.63527E+00  2496   0.230E+00    0.130E+00
RMM:   2    -0.450273757202E+04    0.71251E-01   -0.10404E-01  2448   0.284E-01    0.747E-01
RMM:   3    -0.450269784961E+04    0.39722E-01   -0.10146E-01  2448   0.222E-01    0.182E-01
RMM:   4    -0.450269854907E+04   -0.69946E-03   -0.21430E-03  2506   0.361E-02    0.974E-02
RMM:   5    -0.450269982591E+04   -0.12768E-02   -0.57080E-04  2478   0.189E-02    0.305E-02
RMM:   6    -0.450270011373E+04   -0.28781E-03   -0.11896E-04  2463   0.772E-03    0.148E-02
RMM:   7    -0.450270148119E+04   -0.13675E-02   -0.21201E-04  2448   0.753E-03    0.106E-02
RMM:   8    -0.450270178742E+04   -0.30623E-03   -0.68641E-05  2448   0.468E-03    0.418E-03
RMM:   9    -0.450270198595E+04   -0.19853E-03   -0.35571E-05  2448   0.299E-03    0.419E-03
RMM:  10    -0.450270204151E+04   -0.55562E-04   -0.42778E-06  2480   0.157E-03    0.128E-03
RMM:  11    -0.450270205670E+04   -0.15186E-04   -0.10794E-06  1723   0.819E-04    0.139E-03
RMM:  12    -0.450270208217E+04   -0.25479E-04   -0.11594E-06  2038   0.104E-03    0.107E-03
RMM:  13    -0.450270208832E+04   -0.61447E-05   -0.13154E-07  1507   0.414E-04    0.627E-04
RMM:  14    -0.450270209450E+04   -0.61827E-05   -0.10975E-07  1482   0.301E-04    0.282E-04
RMM:  15    -0.450270209720E+04   -0.26995E-05   -0.30222E-08  1408   0.161E-04    0.126E-04
RMM:  16    -0.450270209759E+04   -0.39046E-06   -0.77206E-09   808   0.793E-05    0.516E-05
RMM:  17    -0.450270209758E+04    0.12253E-07   -0.16872E-09   549   0.601E-05
   5 F= -.45447656E+04 E0= -.45447656E+04  d E =-.499634E-01
       N       E                     dE             d eps       ncg     rms          rms(c)
DAV:   1    -0.450269871529E+04    0.33823E-02   -0.63212E-02  2508   0.229E-01    0.129E-01
RMM:   2    -0.450269803510E+04    0.68019E-03   -0.10274E-03  2448   0.284E-02    0.744E-02
RMM:   3    -0.450269766127E+04    0.37383E-03   -0.10175E-03  2448   0.222E-02    0.181E-02
RMM:   4    -0.450269766134E+04   -0.67783E-07   -0.20315E-05  2496   0.354E-03    0.982E-03
RMM:   5    -0.450269767005E+04   -0.87059E-05   -0.56075E-06  2477   0.190E-03    0.315E-03
RMM:   6    -0.450269767554E+04   -0.54915E-05   -0.11800E-06  2468   0.771E-04    0.149E-03
RMM:   7    -0.450269769514E+04   -0.19607E-04   -0.18773E-06  1757   0.765E-04    0.102E-03
RMM:   8    -0.450269769945E+04   -0.43085E-05   -0.56970E-07  1716   0.455E-04    0.435E-04
RMM:   9    -0.450269770302E+04   -0.35708E-05   -0.38590E-07  1716   0.341E-04    0.404E-04
RMM:  10    -0.450269770378E+04   -0.76005E-06   -0.24595E-08  1156   0.124E-04    0.180E-04
RMM:  11    -0.450269770451E+04   -0.72725E-06   -0.20919E-08  1207   0.120E-04    0.160E-04
RMM:  12    -0.450269770531E+04   -0.79942E-06   -0.59003E-09   851   0.815E-05    0.937E-05
RMM:  13    -0.450269770555E+04   -0.24057E-06   -0.32864E-09   939   0.757E-05    0.457E-05
RMM:  14    -0.450269770557E+04   -0.21682E-07   -0.21244E-09   515   0.583E-05
   6 F= -.45447653E+04 E0= -.45447653E+04  d E =-.496199E-01
