 vasp.5.4.4.18Apr17-6-g9f103f2a35 (build May 21 2018 20:56:50) complex           
 executed on             LinuxGNU date 2020.02.13  21:05:23
 running on   36 total cores
 distrk:  each k-point on   36 cores,    1 groups
 distr:  one band on NCORES_PER_BAND=   6 cores,    6 groups


--------------------------------------------------------------------------------------------------------


 INCAR:
 POTCAR:    PAW_PBE C 08Apr2002                   
 POTCAR:    PAW_PBE C 08Apr2002                   
   VRHFIN =C: s2p2                                                              
   LEXCH  = PE                                                                  
   EATOM  =   147.1560 eV,   10.8157 Ry                                         
                                                                                
   TITEL  = PAW_PBE C 08Apr2002                                                 
   LULTRA =        F    use ultrasoft PP ?                                      
   IUNSCR =        1    unscreen: 0-lin 1-nonlin 2-no                           
   RPACOR =    1.200    partial core radius                                     
   POMASS =   12.011; ZVAL   =    4.000    mass and valenz                      
   RCORE  =    1.500    outmost cutoff radius                                   
   RWIGS  =    1.630; RWIGS  =    0.863    wigner-seitz radius (au A)           
   ENMAX  =  400.000; ENMIN  =  300.000 eV                                      
   ICORE  =        2    local potential                                         
   LCOR   =        T    correct aug charges                                     
   LPAW   =        T    paw PP                                                  
   EAUG   =  644.873                                                            
   DEXC   =    0.000                                                            
   RMAX   =    1.529    core radius for proj-oper                               
   RAUG   =    1.300    factor for augmentation sphere                          
   RDEP   =    1.501    radius for radial grids                                 
   RDEPT  =    1.300    core radius for aug-charge                              
                                                                                
   Atomic configuration                                                         
    4 entries                                                                   
     n  l   j            E        occ.                                          
     1  0  0.50      -273.3789   2.0000                                         
     2  0  0.50       -13.7508   2.0000                                         
     2  1  0.50        -5.2854   2.0000                                         
     3  2  1.50        -5.4423   0.0000                                         
   Description                                                                  
     l       E           TYP  RCUT    TYP  RCUT                                 
     0    -13.7508458     23  1.200                                             
     0     -8.2022199     23  1.200                                             
     1     -5.2854383     23  1.500                                             
     1     34.0145650     23  1.500                                             
     2     -5.4423304      7  1.500                                             
  local pseudopotential read in
  partial core-charges read in
  partial kinetic energy density read in
  atomic valenz-charges read in
  non local Contribution for L=           0  read in
    real space projection operators read in
  non local Contribution for L=           0  read in
    real space projection operators read in
  non local Contribution for L=           1  read in
    real space projection operators read in
  non local Contribution for L=           1  read in
    real space projection operators read in
    PAW grid and wavefunctions read in

   number of l-projection  operators is LMAX  =           4
   number of lm-projection operators is LMMAX =           8

 Optimization of the real space projectors (new method)

 maximal supplied QI-value         = 25.13
 optimisation between [QCUT,QGAM] = [ 10.05, 20.36] = [ 28.30,116.06] Ry 
 Optimized for a Real-space Cutoff    1.30 Angstroem

   l    n(q)    QCUT    max X(q) W(low)/X(q) W(high)/X(q)  e(spline) 
   0      8    10.053   115.676    0.49E-03    0.72E-03    0.18E-06
   0      8    10.053    87.132    0.49E-03    0.71E-03    0.18E-06
   1      7    10.053     4.429    0.32E-03    0.31E-03    0.18E-06
   1      7    10.053     2.733    0.23E-03    0.19E-03    0.20E-06
  PAW_PBE C 08Apr2002                   :
 energy of atom  1       EATOM= -147.1560
 kinetic energy error for atom=    0.0288 (will be added to EATOM!!)


 POSCAR: POSCAR file written by OVITO            
  positions in cartesian coordinates
  velocities in cartesian coordinates
  No initial velocities read in
 exchange correlation table for  LEXCH =        8
   RHO(1)=    0.500       N(1)  =     2000
   RHO(2)=  100.500       N(2)  =     4000



--------------------------------------------------------------------------------------------------------


 ion  position               nearest neighbor table
   1  0.033  0.962  0.408-   7 1.42 223 1.42  33 1.42
   2  0.025  0.888  0.408- 223 1.42 224 1.42   9 1.42
   3  0.016  0.814  0.408-  11 1.42 225 1.42 224 1.42
   4  0.008  0.740  0.408- 225 1.42 226 1.42  13 1.42
   5  0.000  0.667  0.408- 226 1.42  15 1.42 227 1.42
   6  0.148  0.995  0.408-  34 1.42   7 1.42  60 1.42
   7  0.107  0.959  0.408-   1 1.42   8 1.42   6 1.42
   8  0.139  0.921  0.408-   9 1.42   7 1.42  36 1.42
   9  0.098  0.885  0.408-  10 1.42   8 1.42   2 1.42
  10  0.131  0.847  0.408-   9 1.42  38 1.42  11 1.42
  11  0.090  0.811  0.408-  12 1.42   3 1.42  10 1.42
  12  0.123  0.773  0.408-  11 1.42  13 1.42  40 1.42
  13  0.082  0.738  0.408-  12 1.42  14 1.42   4 1.42
  14  0.115  0.699  0.408-  42 1.42  13 1.42  15 1.42
  15  0.074  0.664  0.408-   5 1.42  16 1.42  14 1.42
  16  0.107  0.626  0.408-  17 1.42  15 1.42  44 1.42
  17  0.066  0.590  0.408-  16 1.42 228 1.42  18 1.42
  18  0.098  0.552  0.408-  46 1.42  17 1.42  19 1.42
  19  0.057  0.516  0.408- 230 1.42  20 1.42  18 1.42
  20  0.090  0.478  0.408-  21 1.42  19 1.42  48 1.42
  21  0.049  0.443  0.408-  20 1.42 232 1.42  22 1.42
  22  0.082  0.404  0.408-  50 1.42  21 1.42  23 1.42
  23  0.041  0.369  0.408- 234 1.42  24 1.42  22 1.42
  24  0.074  0.331  0.408-  25 1.42  23 1.42  52 1.42
  25  0.033  0.295  0.408-  24 1.42 236 1.42  26 1.42
  26  0.066  0.257  0.408-  54 1.42  25 1.42  27 1.42
  27  0.025  0.221  0.408- 238 1.42  28 1.42  26 1.42
  28  0.057  0.183  0.408-  29 1.42  27 1.42  56 1.42
  29  0.016  0.148  0.408-  28 1.42 240 1.42  30 1.42
  30  0.049  0.109  0.408-  58 1.42  29 1.42  31 1.42
  31  0.008  0.074  0.408- 242 1.42  32 1.42  30 1.42
  32  0.041  0.036  0.408-  33 1.42  31 1.42  60 1.42
  33  0.000  0.000  0.408-  32 1.42 244 1.42   1 1.42
  34  0.221  0.992  0.408-  35 1.42   6 1.42  87 1.42
  35  0.254  0.954  0.408-  34 1.42  62 1.42  36 1.42
  36  0.213  0.918  0.408-  35 1.42  37 1.42   8 1.42
  37  0.246  0.880  0.408-  64 1.42  36 1.42  38 1.42
  38  0.205  0.844  0.408-  10 1.42  39 1.42  37 1.42
  39  0.238  0.806  0.408-  66 1.42  40 1.42  38 1.42
  40  0.197  0.771  0.408-  39 1.42  41 1.42  12 1.42
  41  0.230  0.732  0.408-  68 1.42  40 1.42  42 1.42
  42  0.189  0.697  0.408-  14 1.42  43 1.42  41 1.42
  43  0.221  0.658  0.408-  70 1.42  44 1.42  42 1.42
  44  0.180  0.623  0.408-  43 1.42  45 1.42  16 1.42
  45  0.213  0.585  0.408-  72 1.42  44 1.42  46 1.42
  46  0.172  0.549  0.408-  18 1.42  47 1.42  45 1.42
  47  0.205  0.511  0.408-  48 1.42  46 1.42  74 1.42
  48  0.164  0.475  0.408-  47 1.42  49 1.42  20 1.42
  49  0.197  0.437  0.408-  76 1.42  48 1.42  50 1.42
  50  0.156  0.402  0.408-  22 1.42  51 1.42  49 1.42
  51  0.189  0.363  0.408-  52 1.42  50 1.42  78 1.42
  52  0.148  0.328  0.408-  51 1.42  53 1.42  24 1.42
  53  0.180  0.290  0.408-  80 1.42  52 1.42  54 1.42
  54  0.139  0.254  0.408-  26 1.42  55 1.42  53 1.42
  55  0.172  0.216  0.408-  56 1.42  54 1.42  82 1.42
  56  0.131  0.180  0.408-  55 1.42  57 1.42  28 1.42
  57  0.164  0.142  0.408-  84 1.42  56 1.42  58 1.42
  58  0.123  0.107  0.408-  30 1.42  59 1.42  57 1.42
  59  0.156  0.068  0.408-  60 1.42  58 1.42  86 1.42
  60  0.115  0.033  0.408-  59 1.42   6 1.42  32 1.42
  61  0.369  0.986  0.408- 114 1.42  88 1.42  62 1.42
  62  0.328  0.951  0.408-  35 1.42  63 1.42  61 1.42
  63  0.361  0.913  0.408-  64 1.42  62 1.42  90 1.42
  64  0.320  0.877  0.408-  37 1.42  63 1.42  65 1.42
  65  0.352  0.839  0.408-  92 1.42  64 1.42  66 1.42
  66  0.311  0.803  0.408-  39 1.42  67 1.42  65 1.42
  67  0.344  0.765  0.408-  68 1.42  66 1.42  94 1.42
  68  0.303  0.730  0.408-  41 1.42  67 1.42  69 1.42
  69  0.336  0.691  0.408-  96 1.42  68 1.42  70 1.42
  70  0.295  0.656  0.408-  43 1.42  71 1.42  69 1.42
  71  0.328  0.617  0.408-  72 1.42  70 1.42  98 1.42
  72  0.287  0.582  0.408-  45 1.42  71 1.42  73 1.42
  73  0.320  0.544  0.408- 100 1.42  74 1.42  72 1.42
  74  0.279  0.508  0.408-  75 1.42  73 1.42  47 1.42
  75  0.311  0.470  0.408-  74 1.42  76 1.42 102 1.42
  76  0.270  0.434  0.408-  49 1.42  75 1.42  77 1.42
  77  0.303  0.396  0.408- 104 1.42  78 1.42  76 1.42
  78  0.262  0.361  0.408-  79 1.42  77 1.42  51 1.42
  79  0.295  0.322  0.408-  78 1.42  80 1.42 106 1.42
  80  0.254  0.287  0.408-  53 1.42  79 1.42  81 1.42
  81  0.287  0.249  0.408- 108 1.42  82 1.42  80 1.42
  82  0.246  0.213  0.408-  81 1.42  83 1.42  55 1.42
  83  0.279  0.175  0.408- 110 1.42  82 1.42  84 1.42
  84  0.238  0.139  0.408-  57 1.42  85 1.42  83 1.42
  85  0.270  0.101  0.408- 112 1.42  86 1.42  84 1.42
  86  0.230  0.066  0.408-  85 1.42  87 1.42  59 1.42
  87  0.262  0.027  0.408- 114 1.42  86 1.42  34 1.42
  88  0.443  0.984  0.408-  61 1.42 141 1.42  89 1.42
  89  0.475  0.945  0.408-  90 1.42  88 1.42 116 1.42
  90  0.434  0.910  0.408-  89 1.42  91 1.42  63 1.42
  91  0.467  0.872  0.408- 118 1.42  90 1.42  92 1.42
  92  0.426  0.836  0.408-  65 1.42  93 1.42  91 1.42
  93  0.459  0.798  0.408-  94 1.42  92 1.42 120 1.42
  94  0.418  0.762  0.408-  93 1.42  95 1.42  67 1.42
  95  0.451  0.724  0.408- 122 1.42  94 1.42  96 1.42
  96  0.410  0.689  0.408-  69 1.42  97 1.42  95 1.42
  97  0.443  0.650  0.408-  98 1.42  96 1.42 124 1.42
  98  0.402  0.615  0.408-  97 1.42  99 1.42  71 1.42
  99  0.434  0.577  0.408- 126 1.42  98 1.42 100 1.42
 100  0.393  0.541  0.408-  73 1.42 101 1.42  99 1.42
 101  0.426  0.503  0.408- 102 1.42 100 1.42 128 1.42
 102  0.385  0.467  0.408- 101 1.42 103 1.42  75 1.42
 103  0.418  0.429  0.408- 130 1.42 102 1.42 104 1.42
 104  0.377  0.393  0.408-  77 1.42 105 1.42 103 1.42
 105  0.410  0.355  0.408- 106 1.42 104 1.42 132 1.42
 106  0.369  0.320  0.408- 105 1.42 107 1.42  79 1.42
 107  0.402  0.281  0.408- 134 1.42 106 1.42 108 1.42
 108  0.361  0.246  0.408-  81 1.42 109 1.42 107 1.42
 109  0.393  0.208  0.408- 110 1.42 108 1.42 136 1.42
 110  0.352  0.172  0.408-  83 1.42 109 1.42 111 1.42
 111  0.385  0.134  0.408- 138 1.42 110 1.42 112 1.42
 112  0.344  0.098  0.408-  85 1.42 113 1.42 111 1.42
 113  0.377  0.060  0.408- 114 1.42 112 1.42 140 1.42
 114  0.336  0.025  0.408-  61 1.42  87 1.42 113 1.42
 115  0.590  0.978  0.408- 142 1.42 116 1.42 168 1.42
 116  0.549  0.943  0.408- 117 1.42 115 1.42  89 1.42
 117  0.582  0.904  0.408- 116 1.42 118 1.42 144 1.42
 118  0.541  0.869  0.408-  91 1.42 117 1.42 119 1.42
 119  0.574  0.831  0.408- 146 1.42 120 1.42 118 1.42
 120  0.533  0.795  0.408- 121 1.42 119 1.42  93 1.42
 121  0.566  0.757  0.408- 120 1.42 122 1.42 148 1.42
 122  0.525  0.721  0.408-  95 1.42 121 1.42 123 1.42
 123  0.557  0.683  0.408- 150 1.42 124 1.42 122 1.42
 124  0.516  0.648  0.408- 123 1.42 125 1.42  97 1.42
 125  0.549  0.609  0.408- 152 1.42 124 1.42 126 1.42
 126  0.508  0.574  0.408-  99 1.42 127 1.42 125 1.42
 127  0.541  0.536  0.408- 154 1.42 128 1.42 126 1.42
 128  0.500  0.500  0.408- 127 1.42 129 1.42 101 1.42
 129  0.533  0.462  0.408- 156 1.42 128 1.42 130 1.42
 130  0.492  0.426  0.408- 103 1.42 131 1.42 129 1.42
 131  0.525  0.388  0.408- 158 1.42 132 1.42 130 1.42
 132  0.484  0.352  0.408- 131 1.42 133 1.42 105 1.42
 133  0.516  0.314  0.408- 160 1.42 132 1.42 134 1.42
 134  0.475  0.279  0.408- 107 1.42 135 1.42 133 1.42
 135  0.508  0.240  0.408- 162 1.42 136 1.42 134 1.42
 136  0.467  0.205  0.408- 135 1.42 137 1.42 109 1.42
 137  0.500  0.167  0.408- 164 1.42 136 1.42 138 1.42
 138  0.459  0.131  0.408- 111 1.42 139 1.42 137 1.42
 139  0.492  0.093  0.408- 166 1.42 140 1.42 138 1.42
 140  0.451  0.057  0.408- 139 1.42 141 1.42 113 1.42
 141  0.484  0.019  0.408- 168 1.42  88 1.42 140 1.42
 142  0.664  0.975  0.408- 115 1.42 143 1.42 195 1.42
 143  0.697  0.937  0.408- 144 1.42 142 1.42 170 1.42
 144  0.656  0.902  0.408- 143 1.42 145 1.42 117 1.42
 145  0.689  0.863  0.408- 172 1.42 144 1.42 146 1.42
 146  0.648  0.828  0.408- 119 1.42 147 1.42 145 1.42
 147  0.680  0.790  0.408- 148 1.42 146 1.42 174 1.42
 148  0.639  0.754  0.408- 147 1.42 149 1.42 121 1.42
 149  0.672  0.716  0.408- 176 1.42 148 1.42 150 1.42
 150  0.631  0.680  0.408- 123 1.42 151 1.42 149 1.42
 151  0.664  0.642  0.408- 152 1.42 150 1.42 178 1.42
 152  0.623  0.607  0.408- 125 1.42 151 1.42 153 1.42
 153  0.656  0.568  0.408- 180 1.42 152 1.42 154 1.42
 154  0.615  0.533  0.408- 127 1.42 155 1.42 153 1.42
 155  0.648  0.495  0.408- 156 1.42 154 1.42 182 1.42
 156  0.607  0.459  0.408- 129 1.42 155 1.42 157 1.42
 157  0.639  0.421  0.408- 184 1.42 156 1.42 158 1.42
 158  0.598  0.385  0.408- 131 1.42 159 1.42 157 1.42
 159  0.631  0.347  0.408- 160 1.42 158 1.42 186 1.42
 160  0.590  0.311  0.408- 133 1.42 159 1.42 161 1.42
 161  0.623  0.273  0.408- 188 1.42 160 1.42 162 1.42
 162  0.582  0.238  0.408- 135 1.42 163 1.42 161 1.42
 163  0.615  0.199  0.408- 164 1.42 162 1.42 190 1.42
 164  0.574  0.164  0.408- 165 1.42 137 1.42 163 1.42
 165  0.607  0.126  0.408- 164 1.42 192 1.42 166 1.42
 166  0.566  0.090  0.408- 167 1.42 139 1.42 165 1.42
 167  0.598  0.052  0.408- 166 1.42 168 1.42 194 1.42
 168  0.557  0.016  0.408- 141 1.42 167 1.42 115 1.42
 169  0.811  0.970  0.408- 196 1.42 170 1.42 222 1.42
 170  0.771  0.934  0.408- 169 1.42 171 1.42 143 1.42
 171  0.803  0.896  0.408- 198 1.42 170 1.42 172 1.42
 172  0.762  0.861  0.408- 145 1.42 173 1.42 171 1.42
 173  0.795  0.822  0.408- 200 1.42 174 1.42 172 1.42
 174  0.754  0.787  0.408- 173 1.42 175 1.42 147 1.42
 175  0.787  0.749  0.408- 202 1.42 174 1.42 176 1.42
 176  0.746  0.713  0.408- 149 1.42 177 1.42 175 1.42
 177  0.779  0.675  0.408- 204 1.42 178 1.42 176 1.42
 178  0.738  0.639  0.408- 177 1.42 179 1.42 151 1.42
 179  0.771  0.601  0.408- 206 1.42 178 1.42 180 1.42
 180  0.729  0.566  0.408- 153 1.42 181 1.42 179 1.42
 181  0.762  0.527  0.408- 182 1.42 180 1.42 208 1.42
 182  0.721  0.492  0.408- 181 1.42 183 1.42 155 1.42
 183  0.754  0.454  0.408- 210 1.42 182 1.42 184 1.42
 184  0.713  0.418  0.408- 157 1.42 185 1.42 183 1.42
 185  0.746  0.380  0.408- 186 1.42 184 1.42 212 1.42
 186  0.705  0.344  0.408- 187 1.42 185 1.42 159 1.42
 187  0.738  0.306  0.408- 186 1.42 214 1.42 188 1.42
 188  0.697  0.270  0.408- 189 1.42 161 1.42 187 1.42
 189  0.729  0.232  0.408- 188 1.42 190 1.42 216 1.42
 190  0.689  0.197  0.408- 189 1.42 191 1.42 163 1.42
 191  0.721  0.158  0.408- 218 1.42 190 1.42 192 1.42
 192  0.680  0.123  0.408- 165 1.42 193 1.42 191 1.42
 193  0.713  0.085  0.408- 194 1.42 192 1.42 220 1.42
 194  0.672  0.049  0.408- 193 1.42 195 1.42 167 1.42
 195  0.705  0.011  0.408- 222 1.42 194 1.42 142 1.42
 196  0.885  0.967  0.408- 169 1.42 197 1.42 244 1.42
 197  0.918  0.929  0.408- 198 1.42 196 1.42 223 1.42
 198  0.877  0.893  0.408- 171 1.42 197 1.42 199 1.42
 199  0.910  0.855  0.408- 224 1.42 198 1.42 200 1.42
 200  0.869  0.820  0.408- 173 1.42 201 1.42 199 1.42
 201  0.902  0.781  0.408- 202 1.42 200 1.42 225 1.42
 202  0.861  0.746  0.408- 175 1.42 201 1.42 203 1.42
 203  0.893  0.708  0.408- 226 1.42 202 1.42 204 1.42
 204  0.852  0.672  0.408- 177 1.42 205 1.42 203 1.42
 205  0.885  0.634  0.408- 206 1.42 204 1.42 227 1.42
 206  0.844  0.598  0.408- 179 1.42 205 1.42 207 1.42
 207  0.877  0.560  0.408- 229 1.42 208 1.42 206 1.42
 208  0.836  0.525  0.408- 209 1.42 207 1.42 181 1.42
 209  0.869  0.486  0.408- 208 1.42 210 1.42 231 1.42
 210  0.828  0.451  0.408- 211 1.42 183 1.42 209 1.42
 211  0.861  0.413  0.408- 210 1.42 233 1.42 212 1.42
 212  0.820  0.377  0.408- 213 1.42 211 1.42 185 1.42
 213  0.852  0.339  0.408- 212 1.42 214 1.42 235 1.42
 214  0.811  0.303  0.408- 187 1.42 213 1.42 215 1.42
 215  0.844  0.265  0.408- 237 1.42 216 1.42 214 1.42
 216  0.803  0.230  0.408- 215 1.42 217 1.42 189 1.42
 217  0.836  0.191  0.408- 239 1.42 216 1.42 218 1.42
 218  0.795  0.156  0.408- 191 1.42 219 1.42 217 1.42
 219  0.828  0.117  0.408- 241 1.42 220 1.42 218 1.42
 220  0.787  0.082  0.408- 219 1.42 221 1.42 193 1.42
 221  0.820  0.044  0.408- 243 1.42 220 1.42 222 1.42
 222  0.779  0.008  0.408- 195 1.42 221 1.42 169 1.42
 223  0.992  0.926  0.408-   2 1.42   1 1.42 197 1.42
 224  0.984  0.852  0.408- 199 1.42   2 1.42   3 1.42
 225  0.975  0.779  0.408-   4 1.42   3 1.42 201 1.42
 226  0.967  0.705  0.408-   5 1.42 203 1.42   4 1.42
 227  0.959  0.631  0.408- 228 1.42 205 1.42   5 1.42
 228  0.992  0.593  0.408- 227 1.42  17 1.42 229 1.42
 229  0.951  0.557  0.408- 207 1.42 230 1.42 228 1.42
 230  0.984  0.519  0.408- 231 1.42  19 1.42 229 1.42
 231  0.943  0.484  0.408- 230 1.42 232 1.42 209 1.42
 232  0.975  0.445  0.408-  21 1.42 231 1.42 233 1.42
 233  0.934  0.410  0.408- 211 1.42 234 1.42 232 1.42
 234  0.967  0.372  0.408- 235 1.42  23 1.42 233 1.42
 235  0.926  0.336  0.408- 234 1.42 236 1.42 213 1.42
 236  0.959  0.298  0.408-  25 1.42 235 1.42 237 1.42
 237  0.918  0.262  0.408- 215 1.42 238 1.42 236 1.42
 238  0.951  0.224  0.408- 239 1.42  27 1.42 237 1.42
 239  0.910  0.189  0.408- 217 1.42 238 1.42 240 1.42
 240  0.943  0.150  0.408-  29 1.42 239 1.42 241 1.42
 241  0.902  0.115  0.408- 219 1.42 242 1.42 240 1.42
 242  0.934  0.077  0.408- 243 1.42  31 1.42 241 1.42
 243  0.893  0.041  0.408- 221 1.42 242 1.42 244 1.42
 244  0.926  0.003  0.408-  33 1.42 243 1.42 196 1.42
 245  0.000  0.333  0.592- 268 1.42 484 1.42 485 1.42
 246  0.008  0.260  0.592- 486 1.42 485 1.42 270 1.42
 247  0.016  0.186  0.592- 272 1.42 486 1.42 487 1.42
 248  0.025  0.112  0.592- 488 1.42 487 1.42 274 1.42
 249  0.033  0.038  0.592- 276 1.42 488 1.42 250 1.42
 250  0.000  0.000  0.592- 467 1.42 251 1.42 249 1.42
 251  0.041  0.964  0.592- 250 1.42 252 1.42 278 1.42
 252  0.008  0.926  0.592- 469 1.42 251 1.42 253 1.42
 253  0.049  0.891  0.592- 280 1.42 254 1.42 252 1.42
 254  0.016  0.852  0.592- 255 1.42 471 1.42 253 1.42
 255  0.057  0.817  0.592- 254 1.42 256 1.42 282 1.42
 256  0.025  0.779  0.592- 473 1.42 255 1.42 257 1.42
 257  0.066  0.743  0.592- 284 1.42 258 1.42 256 1.42
 258  0.033  0.705  0.592- 259 1.42 475 1.42 257 1.42
 259  0.074  0.669  0.592- 258 1.42 260 1.42 286 1.42
 260  0.041  0.631  0.592- 477 1.42 259 1.42 261 1.42
 261  0.082  0.596  0.592- 262 1.42 288 1.42 260 1.42
 262  0.049  0.557  0.592- 261 1.42 263 1.42 479 1.42
 263  0.090  0.522  0.592- 262 1.42 264 1.42 290 1.42
 264  0.057  0.484  0.592- 481 1.42 263 1.42 265 1.42
 265  0.098  0.448  0.592- 292 1.42 266 1.42 264 1.42
 266  0.066  0.410  0.592- 267 1.42 483 1.42 265 1.42
 267  0.107  0.374  0.592- 266 1.42 268 1.42 294 1.42
 268  0.074  0.336  0.592- 245 1.42 267 1.42 269 1.42
 269  0.115  0.301  0.592- 296 1.42 270 1.42 268 1.42
 270  0.082  0.262  0.592- 271 1.42 269 1.42 246 1.42
 271  0.123  0.227  0.592- 270 1.42 272 1.42 298 1.42
 272  0.090  0.189  0.592- 247 1.42 271 1.42 273 1.42
 273  0.131  0.153  0.592- 300 1.42 274 1.42 272 1.42
 274  0.098  0.115  0.592- 275 1.42 273 1.42 248 1.42
 275  0.139  0.079  0.592- 274 1.42 276 1.42 302 1.42
 276  0.107  0.041  0.592- 249 1.42 275 1.42 277 1.42
 277  0.148  0.005  0.592- 304 1.42 276 1.42 278 1.42
 278  0.115  0.967  0.592- 279 1.42 277 1.42 251 1.42
 279  0.156  0.932  0.592- 278 1.42 280 1.42 306 1.42
 280  0.123  0.893  0.592- 253 1.42 279 1.42 281 1.42
 281  0.164  0.858  0.592- 308 1.42 282 1.42 280 1.42
 282  0.131  0.820  0.592- 283 1.42 281 1.42 255 1.42
 283  0.172  0.784  0.592- 282 1.42 284 1.42 310 1.42
 284  0.139  0.746  0.592- 257 1.42 283 1.42 285 1.42
 285  0.180  0.710  0.592- 312 1.42 286 1.42 284 1.42
 286  0.148  0.672  0.592- 287 1.42 285 1.42 259 1.42
 287  0.189  0.637  0.592- 286 1.42 288 1.42 314 1.42
 288  0.156  0.598  0.592- 261 1.42 287 1.42 289 1.42
 289  0.197  0.563  0.592- 316 1.42 290 1.42 288 1.42
 290  0.164  0.525  0.592- 291 1.42 289 1.42 263 1.42
 291  0.205  0.489  0.592- 290 1.42 292 1.42 318 1.42
 292  0.172  0.451  0.592- 265 1.42 291 1.42 293 1.42
 293  0.213  0.415  0.592- 294 1.42 320 1.42 292 1.42
 294  0.180  0.377  0.592- 293 1.42 295 1.42 267 1.42
 295  0.221  0.342  0.592- 322 1.42 294 1.42 296 1.42
 296  0.189  0.303  0.592- 269 1.42 295 1.42 297 1.42
 297  0.230  0.268  0.592- 324 1.42 298 1.42 296 1.42
 298  0.197  0.230  0.592- 299 1.42 297 1.42 271 1.42
 299  0.238  0.194  0.592- 326 1.42 298 1.42 300 1.42
 300  0.205  0.156  0.592- 273 1.42 299 1.42 301 1.42
 301  0.246  0.120  0.592- 328 1.42 302 1.42 300 1.42
 302  0.213  0.082  0.592- 303 1.42 301 1.42 275 1.42
 303  0.254  0.046  0.592- 330 1.42 302 1.42 304 1.42
 304  0.221  0.008  0.592- 277 1.42 303 1.42 305 1.42
 305  0.262  0.973  0.592- 332 1.42 306 1.42 304 1.42
 306  0.230  0.934  0.592- 307 1.42 305 1.42 279 1.42
 307  0.270  0.899  0.592- 334 1.42 306 1.42 308 1.42
 308  0.238  0.861  0.592- 281 1.42 307 1.42 309 1.42
 309  0.279  0.825  0.592- 336 1.42 310 1.42 308 1.42
 310  0.246  0.787  0.592- 311 1.42 309 1.42 283 1.42
 311  0.287  0.751  0.592- 338 1.42 310 1.42 312 1.42
 312  0.254  0.713  0.592- 285 1.42 313 1.42 311 1.42
 313  0.295  0.678  0.592- 314 1.42 312 1.42 340 1.42
 314  0.262  0.639  0.592- 313 1.42 315 1.42 287 1.42
 315  0.303  0.604  0.592- 342 1.42 314 1.42 316 1.42
 316  0.270  0.566  0.592- 289 1.42 317 1.42 315 1.42
 317  0.311  0.530  0.592- 318 1.42 316 1.42 344 1.42
 318  0.279  0.492  0.592- 317 1.42 319 1.42 291 1.42
 319  0.320  0.456  0.592- 346 1.42 318 1.42 320 1.42
 320  0.287  0.418  0.592- 293 1.42 321 1.42 319 1.42
 321  0.328  0.383  0.592- 320 1.42 322 1.42 348 1.42
 322  0.295  0.344  0.592- 295 1.42 321 1.42 323 1.42
 323  0.336  0.309  0.592- 350 1.42 324 1.42 322 1.42
 324  0.303  0.270  0.592- 297 1.42 325 1.42 323 1.42
 325  0.344  0.235  0.592- 326 1.42 324 1.42 352 1.42
 326  0.311  0.197  0.592- 325 1.42 299 1.42 327 1.42
 327  0.352  0.161  0.592- 354 1.42 328 1.42 326 1.42
 328  0.320  0.123  0.592- 301 1.42 329 1.42 327 1.42
 329  0.361  0.087  0.592- 328 1.42 330 1.42 356 1.42
 330  0.328  0.049  0.592- 303 1.42 329 1.42 331 1.42
 331  0.369  0.014  0.592- 358 1.42 330 1.42 332 1.42
 332  0.336  0.975  0.592- 305 1.42 333 1.42 331 1.42
 333  0.377  0.940  0.592- 332 1.42 334 1.42 360 1.42
 334  0.344  0.902  0.592- 307 1.42 333 1.42 335 1.42
 335  0.385  0.866  0.592- 362 1.42 336 1.42 334 1.42
 336  0.352  0.828  0.592- 309 1.42 337 1.42 335 1.42
 337  0.393  0.792  0.592- 336 1.42 338 1.42 364 1.42
 338  0.361  0.754  0.592- 311 1.42 337 1.42 339 1.42
 339  0.402  0.719  0.592- 366 1.42 340 1.42 338 1.42
 340  0.369  0.680  0.592- 341 1.42 339 1.42 313 1.42
 341  0.410  0.645  0.592- 340 1.42 342 1.42 368 1.42
 342  0.377  0.607  0.592- 315 1.42 341 1.42 343 1.42
 343  0.418  0.571  0.592- 370 1.42 344 1.42 342 1.42
 344  0.385  0.533  0.592- 345 1.42 343 1.42 317 1.42
 345  0.426  0.497  0.592- 344 1.42 346 1.42 372 1.42
 346  0.393  0.459  0.592- 319 1.42 345 1.42 347 1.42
 347  0.434  0.423  0.592- 374 1.42 348 1.42 346 1.42
 348  0.402  0.385  0.592- 349 1.42 347 1.42 321 1.42
 349  0.443  0.350  0.592- 348 1.42 350 1.42 376 1.42
 350  0.410  0.311  0.592- 323 1.42 349 1.42 351 1.42
 351  0.451  0.276  0.592- 378 1.42 352 1.42 350 1.42
 352  0.418  0.238  0.592- 353 1.42 351 1.42 325 1.42
 353  0.459  0.202  0.592- 352 1.42 354 1.42 380 1.42
 354  0.426  0.164  0.592- 327 1.42 353 1.42 355 1.42
 355  0.467  0.128  0.592- 382 1.42 356 1.42 354 1.42
 356  0.434  0.090  0.592- 357 1.42 355 1.42 329 1.42
 357  0.475  0.055  0.592- 358 1.42 356 1.42 384 1.42
 358  0.443  0.016  0.592- 357 1.42 331 1.42 359 1.42
 359  0.484  0.981  0.592- 386 1.42 360 1.42 358 1.42
 360  0.451  0.943  0.592- 361 1.42 359 1.42 333 1.42
 361  0.492  0.907  0.592- 388 1.42 360 1.42 362 1.42
 362  0.459  0.869  0.592- 335 1.42 361 1.42 363 1.42
 363  0.500  0.833  0.592- 390 1.42 364 1.42 362 1.42
 364  0.467  0.795  0.592- 365 1.42 363 1.42 337 1.42
 365  0.508  0.760  0.592- 392 1.42 364 1.42 366 1.42
 366  0.475  0.721  0.592- 339 1.42 365 1.42 367 1.42
 367  0.516  0.686  0.592- 394 1.42 368 1.42 366 1.42
 368  0.484  0.648  0.592- 369 1.42 367 1.42 341 1.42
 369  0.525  0.612  0.592- 396 1.42 368 1.42 370 1.42
 370  0.492  0.574  0.592- 343 1.42 369 1.42 371 1.42
 371  0.533  0.538  0.592- 398 1.42 372 1.42 370 1.42
 372  0.500  0.500  0.592- 373 1.42 371 1.42 345 1.42
 373  0.541  0.464  0.592- 400 1.42 372 1.42 374 1.42
 374  0.508  0.426  0.592- 347 1.42 373 1.42 375 1.42
 375  0.549  0.391  0.592- 402 1.42 376 1.42 374 1.42
 376  0.516  0.352  0.592- 377 1.42 375 1.42 349 1.42
 377  0.557  0.317  0.592- 404 1.42 376 1.42 378 1.42
 378  0.525  0.279  0.592- 351 1.42 379 1.42 377 1.42
 379  0.566  0.243  0.592- 380 1.42 378 1.42 406 1.42
 380  0.533  0.205  0.592- 379 1.42 381 1.42 353 1.42
 381  0.574  0.169  0.592- 408 1.42 380 1.42 382 1.42
 382  0.541  0.131  0.592- 355 1.42 383 1.42 381 1.42
 383  0.582  0.096  0.592- 384 1.42 382 1.42 410 1.42
 384  0.549  0.057  0.592- 383 1.42 385 1.42 357 1.42
 385  0.590  0.022  0.592- 386 1.42 412 1.42 384 1.42
 386  0.557  0.984  0.592- 385 1.42 359 1.42 387 1.42
 387  0.598  0.948  0.592- 386 1.42 388 1.42 414 1.42
 388  0.566  0.910  0.592- 361 1.42 387 1.42 389 1.42
 389  0.607  0.874  0.592- 416 1.42 390 1.42 388 1.42
 390  0.574  0.836  0.592- 363 1.42 391 1.42 389 1.42
 391  0.615  0.801  0.592- 390 1.42 392 1.42 418 1.42
 392  0.582  0.762  0.592- 365 1.42 391 1.42 393 1.42
 393  0.623  0.727  0.592- 420 1.42 394 1.42 392 1.42
 394  0.590  0.689  0.592- 367 1.42 395 1.42 393 1.42
 395  0.631  0.653  0.592- 394 1.42 396 1.42 422 1.42
 396  0.598  0.615  0.592- 369 1.42 395 1.42 397 1.42
 397  0.639  0.579  0.592- 424 1.42 398 1.42 396 1.42
 398  0.607  0.541  0.592- 371 1.42 399 1.42 397 1.42
 399  0.648  0.505  0.592- 398 1.42 400 1.42 426 1.42
 400  0.615  0.467  0.592- 373 1.42 399 1.42 401 1.42
 401  0.656  0.432  0.592- 428 1.42 402 1.42 400 1.42
 402  0.623  0.393  0.592- 375 1.42 403 1.42 401 1.42
 403  0.664  0.358  0.592- 402 1.42 404 1.42 430 1.42
 404  0.631  0.320  0.592- 377 1.42 403 1.42 405 1.42
 405  0.672  0.284  0.592- 432 1.42 406 1.42 404 1.42
 406  0.639  0.246  0.592- 407 1.42 405 1.42 379 1.42
 407  0.680  0.210  0.592- 406 1.42 408 1.42 434 1.42
 408  0.648  0.172  0.592- 381 1.42 407 1.42 409 1.42
 409  0.689  0.137  0.592- 436 1.42 410 1.42 408 1.42
 410  0.656  0.098  0.592- 411 1.42 409 1.42 383 1.42
 411  0.697  0.063  0.592- 410 1.42 412 1.42 438 1.42
 412  0.664  0.025  0.592- 385 1.42 413 1.42 411 1.42
 413  0.705  0.989  0.592- 440 1.42 412 1.42 414 1.42
 414  0.672  0.951  0.592- 415 1.42 413 1.42 387 1.42
 415  0.713  0.915  0.592- 414 1.42 416 1.42 442 1.42
 416  0.680  0.877  0.592- 389 1.42 415 1.42 417 1.42
 417  0.721  0.842  0.592- 444 1.42 418 1.42 416 1.42
 418  0.689  0.803  0.592- 419 1.42 417 1.42 391 1.42
 419  0.729  0.768  0.592- 418 1.42 420 1.42 446 1.42
 420  0.697  0.730  0.592- 393 1.42 419 1.42 421 1.42
 421  0.738  0.694  0.592- 448 1.42 422 1.42 420 1.42
 422  0.705  0.656  0.592- 423 1.42 421 1.42 395 1.42
 423  0.746  0.620  0.592- 422 1.42 424 1.42 450 1.42
 424  0.713  0.582  0.592- 397 1.42 423 1.42 425 1.42
 425  0.754  0.546  0.592- 452 1.42 426 1.42 424 1.42
 426  0.721  0.508  0.592- 427 1.42 425 1.42 399 1.42
 427  0.762  0.473  0.592- 426 1.42 428 1.42 454 1.42
 428  0.729  0.434  0.592- 401 1.42 427 1.42 429 1.42
 429  0.771  0.399  0.592- 456 1.42 430 1.42 428 1.42
 430  0.738  0.361  0.592- 431 1.42 429 1.42 403 1.42
 431  0.779  0.325  0.592- 458 1.42 430 1.42 432 1.42
 432  0.746  0.287  0.592- 405 1.42 431 1.42 433 1.42
 433  0.787  0.251  0.592- 460 1.42 434 1.42 432 1.42
 434  0.754  0.213  0.592- 435 1.42 433 1.42 407 1.42
 435  0.795  0.178  0.592- 462 1.42 434 1.42 436 1.42
 436  0.762  0.139  0.592- 409 1.42 435 1.42 437 1.42
 437  0.803  0.104  0.592- 464 1.42 438 1.42 436 1.42
 438  0.771  0.066  0.592- 439 1.42 437 1.42 411 1.42
 439  0.811  0.030  0.592- 466 1.42 438 1.42 440 1.42
 440  0.779  0.992  0.592- 413 1.42 441 1.42 439 1.42
 441  0.820  0.956  0.592- 442 1.42 468 1.42 440 1.42
 442  0.787  0.918  0.592- 441 1.42 443 1.42 415 1.42
 443  0.828  0.883  0.592- 470 1.42 442 1.42 444 1.42
 444  0.795  0.844  0.592- 417 1.42 443 1.42 445 1.42
 445  0.836  0.809  0.592- 472 1.42 446 1.42 444 1.42
 446  0.803  0.771  0.592- 447 1.42 445 1.42 419 1.42
 447  0.844  0.735  0.592- 474 1.42 446 1.42 448 1.42
 448  0.811  0.697  0.592- 421 1.42 449 1.42 447 1.42
 449  0.852  0.661  0.592- 450 1.42 448 1.42 476 1.42
 450  0.820  0.623  0.592- 449 1.42 451 1.42 423 1.42
 451  0.861  0.587  0.592- 478 1.42 450 1.42 452 1.42
 452  0.828  0.549  0.592- 425 1.42 453 1.42 451 1.42
 453  0.869  0.514  0.592- 454 1.42 452 1.42 480 1.42
 454  0.836  0.475  0.592- 453 1.42 455 1.42 427 1.42
 455  0.877  0.440  0.592- 482 1.42 454 1.42 456 1.42
 456  0.844  0.402  0.592- 429 1.42 457 1.42 455 1.42
 457  0.885  0.366  0.592- 456 1.42 458 1.42 484 1.42
 458  0.852  0.328  0.592- 431 1.42 457 1.42 459 1.42
 459  0.893  0.292  0.592- 485 1.42 460 1.42 458 1.42
 460  0.861  0.254  0.592- 433 1.42 461 1.42 459 1.42
 461  0.902  0.219  0.592- 460 1.42 462 1.42 486 1.42
 462  0.869  0.180  0.592- 435 1.42 461 1.42 463 1.42
 463  0.910  0.145  0.592- 487 1.42 464 1.42 462 1.42
 464  0.877  0.107  0.592- 437 1.42 465 1.42 463 1.42
 465  0.918  0.071  0.592- 464 1.42 466 1.42 488 1.42
 466  0.885  0.033  0.592- 439 1.42 465 1.42 467 1.42
 467  0.926  0.997  0.592- 250 1.42 468 1.42 466 1.42
 468  0.893  0.959  0.592- 441 1.42 469 1.42 467 1.42
 469  0.934  0.923  0.592- 468 1.42 252 1.42 470 1.42
 470  0.902  0.885  0.592- 443 1.42 469 1.42 471 1.42
 471  0.943  0.850  0.592- 254 1.42 472 1.42 470 1.42
 472  0.910  0.811  0.592- 445 1.42 473 1.42 471 1.42
 473  0.951  0.776  0.592- 474 1.42 472 1.42 256 1.42
 474  0.918  0.738  0.592- 473 1.42 447 1.42 475 1.42
 475  0.959  0.702  0.592- 258 1.42 476 1.42 474 1.42
 476  0.926  0.664  0.592- 477 1.42 475 1.42 449 1.42
 477  0.967  0.628  0.592- 476 1.42 260 1.42 478 1.42
 478  0.934  0.590  0.592- 451 1.42 477 1.42 479 1.42
 479  0.975  0.555  0.592- 262 1.42 480 1.42 478 1.42
 480  0.943  0.516  0.592- 481 1.42 479 1.42 453 1.42
 481  0.984  0.481  0.592- 480 1.42 264 1.42 482 1.42
 482  0.951  0.443  0.592- 455 1.42 481 1.42 483 1.42
 483  0.992  0.407  0.592- 266 1.42 484 1.42 482 1.42
 484  0.959  0.369  0.592- 245 1.42 483 1.42 457 1.42
 485  0.967  0.295  0.592- 459 1.42 246 1.42 245 1.42
 486  0.975  0.221  0.592- 246 1.42 247 1.42 461 1.42
 487  0.984  0.148  0.592- 463 1.42 248 1.42 247 1.42
 488  0.992  0.074  0.592- 248 1.42 249 1.42 465 1.42

  LATTYP: Found a simple orthorhombic cell.
 ALAT       =    18.3999996000
 B/A-ratio  =     1.0441964847
 C/A-ratio  =     1.8086012948
  
  Lattice vectors:
  
 A1 = (   0.0000000000,   0.0000000000,  18.3999996000)
 A2 = ( -19.2132149000,   0.0000000000,   0.0000000000)
 A3 = (   0.0000000000, -33.2782631000,   0.0000000000)


Analysis of symmetry for initial positions (statically):
=====================================================================
 Subroutine PRICEL returns:
 Original cell was already a primitive cell.
 

 Routine SETGRP: Setting up the symmetry group for a 
 simple orthorhombic supercell.


 Subroutine GETGRP returns: Found  1 space group operations
 (whereof  1 operations were pure point group operations)
 out of a pool of  8 trial point group operations.


The static configuration has the point symmetry C_1 .


Analysis of symmetry for dynamics (positions and initial velocities):
=====================================================================
 Subroutine PRICEL returns:
 Original cell was already a primitive cell.
 

 Routine SETGRP: Setting up the symmetry group for a 
 simple orthorhombic supercell.


 Subroutine GETGRP returns: Found  1 space group operations
 (whereof  1 operations were pure point group operations)
 out of a pool of  8 trial point group operations.


The dynamic configuration has the point symmetry C_1 .


 Subroutine INISYM returns: Found  1 space group operations
 (whereof  1 operations are pure point group operations),
 and found     1 'primitive' translations



 KPOINTS: K-Points                                

Automatic generation of k-mesh.
Space group operators:
 irot       det(A)        alpha          n_x          n_y          n_z        tau_x        tau_y        tau_z
    1     1.000000     0.000000     1.000000     0.000000     0.000000     0.000000     0.000000     0.000000
 
 Subroutine IBZKPT returns following result:
 ===========================================
 
 Found      1 irreducible k-points:
 
 Following reciprocal coordinates:
            Coordinates               Weight
  0.000000  0.000000  0.000000      1.000000
 
 Following cartesian coordinates:
            Coordinates               Weight
  0.000000  0.000000  0.000000      1.000000
 


--------------------------------------------------------------------------------------------------------




 Dimension of arrays:
   k-points           NKPTS =      1   k-points in BZ     NKDIM =      1   number of bands    NBANDS=   1224
   number of dos      NEDOS =    301   number of ions     NIONS =    488
   non local maximal  LDIM  =      4   non local SUM 2l+1 LMDIM =      8
   total plane-waves  NPLWV = ******
   max r-space proj   IRMAX =   1188   max aug-charges    IRDMAX=   1655
   dimension x,y,z NGX =    96 NGY =  168 NGZ =   90
   dimension x,y,z NGXF=   192 NGYF=  336 NGZF=  180
   support grid    NGXF=   192 NGYF=  336 NGZF=  180
   ions per type =             488
   NGX,Y,Z   is equivalent  to a cutoff of   8.31,  8.39,  8.13 a.u.
   NGXF,Y,Z  is equivalent  to a cutoff of  16.61, 16.79, 16.26 a.u.

 SYSTEM =  unknown system                          
 POSCAR =  POSCAR file written by OVITO            

 Startparameter for this run:
   NWRITE =      2    write-flag & timer
   PREC   = normal    normal or accurate (medium, high low for compatibility)
   ISTART =      0    job   : 0-new  1-cont  2-samecut
   ICHARG =      2    charge: 1-file 2-atom 10-const
   ISPIN  =      1    spin polarized calculation?
   LNONCOLLINEAR =      F non collinear calculations
   LSORBIT =      F    spin-orbit coupling
   INIWAV =      1    electr: 0-lowe 1-rand  2-diag
   LASPH  =      F    aspherical Exc in radial PAW
   METAGGA=      F    non-selfconsistent MetaGGA calc.

 Electronic Relaxation 1
   ENCUT  =  400.0 eV  29.40 Ry    5.42 a.u.  31.33 54.27 30.01*2*pi/ulx,y,z
   ENINI  =  400.0     initial cutoff
   ENAUG  =  644.9 eV  augmentation charge cutoff
   NELM   =     60;   NELMIN=  2; NELMDL= -5     # of ELM steps 
   EDIFF  = 0.1E-06   stopping-criterion for ELM
   LREAL  =      T    real-space projection
   NLSPLINE    = F    spline interpolate recip. space projectors
   LCOMPAT=      F    compatible to vasp.4.4
   GGA_COMPAT  = T    GGA compatible to vasp.4.4-vasp.4.6
   LMAXPAW     = -100 max onsite density
   LMAXMIX     =    2 max onsite mixed and CHGCAR
   VOSKOWN=      0    Vosko Wilk Nusair interpolation
   ROPT   =   -0.00050
 Ionic relaxation
   EDIFFG = -.5E-01   stopping-criterion for IOM
   NSW    =     50    number of steps for IOM
   NBLOCK =      1;   KBLOCK =     50    inner block; outer block 
   IBRION =      2    ionic relax: 0-MD 1-quasi-New 2-CG
   NFREE  =      1    steps in history (QN), initial steepest desc. (CG)
   ISIF   =      4    stress and relaxation
   IWAVPR =     11    prediction:  0-non 1-charg 2-wave 3-comb
   ISYM   =      2    0-nonsym 1-usesym 2-fastsym
   LCORR  =      T    Harris-Foulkes like correction to forces

   POTIM  = 0.5000    time-step for ionic-motion
   TEIN   =    0.0    initial temperature
   TEBEG  =    0.0;   TEEND  =   0.0 temperature during run
   SMASS  =  -3.00    Nose mass-parameter (am)
   estimated Nose-frequenzy (Omega)   =  0.10E-29 period in steps =****** mass=  -0.844E-26a.u.
   SCALEE = 1.0000    scale energy and forces
   NPACO  =    256;   APACO  = 16.0  distance and # of slots for P.C.
   PSTRESS=    0.0 pullay stress

  Mass of Ions in am
   POMASS =  12.01
  Ionic Valenz
   ZVAL   =   4.00
  Atomic Wigner-Seitz radii
   RWIGS  =  -1.00
  virtual crystal weights 
   VCA    =   1.00
   NELECT =    1952.0000    total number of electrons
   NUPDOWN=      -1.0000    fix difference up-down

 DOS related values:
   EMIN   =  10.00;   EMAX   =-10.00  energy-range for DOS
   EFERMI =   0.00
   ISMEAR =     0;   SIGMA  =   0.05  broadening in eV -4-tet -1-fermi 0-gaus

 Electronic relaxation 2 (details)
   IALGO  =     68    algorithm
   LDIAG  =      T    sub-space diagonalisation (order eigenvalues)
   LSUBROT=      F    optimize rotation matrix (better conditioning)
   TURBO    =      0    0=normal 1=particle mesh
   IRESTART =      0    0=no restart 2=restart with 2 vectors
   NREBOOT  =      0    no. of reboots
   NMIN     =      0    reboot dimension
   EREF     =   0.00    reference energy to select bands
   IMIX   =      4    mixing-type and parameters
     AMIX     =   0.40;   BMIX     =  1.00
     AMIX_MAG =   1.60;   BMIX_MAG =  1.00
     AMIN     =   0.10
     WC   =   100.;   INIMIX=   1;  MIXPRE=   1;  MAXMIX= -45

 Intra band minimization:
   WEIMIN = 0.0010     energy-eigenvalue tresh-hold
   EBREAK =  0.20E-10  absolut break condition
   DEPER  =   0.30     relativ break condition  

   TIME   =   0.40     timestep for ELM

  volume/ion in A,a.u.               =      24.11       162.69
  Fermi-wavevector in a.u.,A,eV,Ry     =   0.899584  1.699968 11.010544  0.809252
  Thomas-Fermi vector in A             =   2.022436

 Write flags
   LWAVE        =      T    write WAVECAR
   LDOWNSAMPLE  =      F    k-point downsampling of WAVECAR
   LCHARG       =      T    write CHGCAR
   LVTOT        =      F    write LOCPOT, total local potential
   LVHAR        =      F    write LOCPOT, Hartree potential only
   LELF         =      F    write electronic localiz. function (ELF)
   LORBIT       =     11    0 simple, 1 ext, 2 COOP (PROOUT), +10 PAW based schemes


 Dipole corrections
   LMONO  =      F    monopole corrections only (constant potential shift)
   LDIPOL =      F    correct potential (dipole corrections)
   IDIPOL =      0    1-x, 2-y, 3-z, 4-all directions 
   EPSILON=  1.0000000 bulk dielectric constant

 Exchange correlation treatment:
   GGA     =    --    GGA type
   LEXCH   =     8    internal setting for exchange type
   VOSKOWN=      0    Vosko Wilk Nusair interpolation
   LHFCALC =     F    Hartree Fock is set to
   LHFONE  =     F    Hartree Fock one center treatment
   AEXX    =    0.0000 exact exchange contribution

 Linear response parameters
   LEPSILON=     F    determine dielectric tensor
   LRPA    =     F    only Hartree local field effects (RPA)
   LNABLA  =     F    use nabla operator in PAW spheres
   LVEL    =     F    velocity operator in full k-point grid
   LINTERFAST=   F  fast interpolation
   KINTER  =     0    interpolate to denser k-point grid
   CSHIFT  =0.1000    complex shift for real part using Kramers Kronig
   OMEGAMAX=  -1.0    maximum frequency
   DEG_THRESHOLD= 0.2000000E-02 threshold for treating states as degnerate
   RTIME   =   -0.100 relaxation time in fs
  (WPLASMAI=    0.000 imaginary part of plasma frequency in eV, 0.658/RTIME)
   DFIELD  = 0.0000000 0.0000000 0.0000000 field for delta impulse in time

 Orbital magnetization related:
   ORBITALMAG=     F  switch on orbital magnetization
   LCHIMAG   =     F  perturbation theory with respect to B field
   DQ        =  0.001000  dq finite difference perturbation B field
   LLRAUG    =     F  two centre corrections for induced B field



--------------------------------------------------------------------------------------------------------


 conjugate gradient relaxation of ions
 charge density and potential will be updated during run
 non-spin polarized calculation
 RMM-DIIS sequential band-by-band and
  variant of blocked Davidson during initial phase
 perform sub-space diagonalisation
    before iterative eigenvector-optimisation
 modified Broyden-mixing scheme, WC =      100.0
 initial mixing is a Kerker type mixing with AMIX =  0.4000 and BMIX =      1.0000
 Hartree-type preconditioning will be used
 using additional bands          248
 real space projection scheme for non local part
 use partial core corrections
 calculate Harris-corrections to forces   (improved forces if not selfconsistent)
 use gradient corrections 
 use of overlap-Matrix (Vanderbilt PP)
 Gauss-broadening in eV      SIGMA  =   0.05


--------------------------------------------------------------------------------------------------------


  energy-cutoff  :      400.00
  volume of cell :    11764.64
      direct lattice vectors                 reciprocal lattice vectors
    19.213214900  0.000000000  0.000000000     0.052047510  0.000000000  0.000000000
     0.000000000 33.278263100  0.000000000     0.000000000  0.030049645  0.000000000
     0.000000000  0.000000000 18.399999600     0.000000000  0.000000000  0.054347827

  length of vectors
    19.213214900 33.278263100 18.399999600     0.052047510  0.030049645  0.054347827



 k-points in units of 2pi/SCALE and weight: K-Points                                
   0.00000000  0.00000000  0.00000000       1.000

 k-points in reciprocal lattice and weights: K-Points                                
   0.00000000  0.00000000  0.00000000       1.000

 position of ions in fractional coordinates (direct lattice) 
   0.03278993  0.96173893  0.40760870
   0.02456642  0.88796700  0.40760870
   0.01639497  0.81419512  0.40760870
   0.00817146  0.74042324  0.40760870
   0.00000000  0.66668145  0.40760870
   0.14755470  0.99452308  0.40760870
   0.10654125  0.95900437  0.40760870
   0.13933119  0.92075120  0.40760870
   0.09836979  0.88523249  0.40760870
   0.13115973  0.84700936  0.40760870
   0.09014629  0.81146061  0.40760870
   0.12293622  0.77323748  0.40760870
   0.08197483  0.73771877  0.40760870
   0.11476475  0.69946560  0.40760870
   0.07375133  0.66394689  0.40760870
   0.10654125  0.62569373  0.40760870
   0.06557986  0.59017501  0.40760870
   0.09836979  0.55192185  0.40760870
   0.05735636  0.51640314  0.40760870
   0.09014629  0.47814995  0.40760870
   0.04918490  0.44263126  0.40760870
   0.08197483  0.40437807  0.40760870
   0.04096139  0.36885938  0.40760870
   0.07375133  0.33060619  0.40760870
   0.03278993  0.29508751  0.40760870
   0.06557986  0.25683432  0.40760870
   0.02456642  0.22131563  0.40760870
   0.05735636  0.18306244  0.40760870
   0.01639497  0.14754375  0.40760870
   0.04918490  0.10929056  0.40760870
   0.00817146  0.07377188  0.40760870
   0.04096139  0.03551868  0.40760870
   0.00000000  0.00000000  0.40760870
   0.22130601  0.99178857  0.40760870
   0.25409595  0.95356539  0.40760870
   0.21313454  0.91804673  0.40760870
   0.24592448  0.87979351  0.40760870
   0.20491105  0.84427485  0.40760870
   0.23770097  0.80602163  0.40760870
   0.19673959  0.77050298  0.40760870
   0.22952952  0.73224975  0.40760870
   0.18851608  0.69673110  0.40760870
   0.22130601  0.65847788  0.40760870
   0.18034462  0.62295922  0.40760870
   0.21313454  0.58470600  0.40760870
   0.17212111  0.54918729  0.40760870
   0.20491105  0.51093413  0.40760870
   0.16394966  0.47541544  0.40760870
   0.19673959  0.43716225  0.40760870
   0.15572616  0.40164356  0.40760870
   0.18851608  0.36339037  0.40760870
   0.14755470  0.32787169  0.40760870
   0.18034462  0.28961847  0.40760870
   0.13933119  0.25409981  0.40760870
   0.17212111  0.21584660  0.40760870
   0.13115973  0.18032792  0.40760870
   0.16394966  0.14207473  0.40760870
   0.12293622  0.10655604  0.40760870
   0.15572616  0.06830284  0.40760870
   0.11476475  0.03278416  0.40760870
   0.36886070  0.98634959  0.40760870
   0.32784726  0.95083088  0.40760870
   0.36063720  0.91257766  0.40760870
   0.31967582  0.87705900  0.40760870
   0.35246573  0.83880578  0.40760870
   0.31145231  0.80328713  0.40760870
   0.34424223  0.76503391  0.40760870
   0.30328085  0.72951525  0.40760870
   0.33607076  0.69126203  0.40760870
   0.29505735  0.65574337  0.40760870
   0.32784726  0.61749015  0.40760870
   0.28688588  0.58197150  0.40760870
   0.31967582  0.54371828  0.40760870
   0.27871442  0.50819962  0.40760870
   0.31145231  0.46994640  0.40760870
   0.27049091  0.43442772  0.40760870
   0.30328085  0.39617452  0.40760870
   0.26231945  0.36065584  0.40760870
   0.29505735  0.32240265  0.40760870
   0.25409595  0.28688396  0.40760870
   0.28688588  0.24863077  0.40760870
   0.24592448  0.21311208  0.40760870
   0.27871442  0.17485888  0.40760870
   0.23770097  0.13934021  0.40760870
   0.27049091  0.10108701  0.40760870
   0.22952952  0.06556832  0.40760870
   0.26231945  0.02731513  0.40760870
   0.44261201  0.98361509  0.40760870
   0.47540195  0.94536181  0.40760870
   0.43444057  0.90984316  0.40760870
   0.46723051  0.87158994  0.40760870
   0.42621707  0.83607128  0.40760870
   0.45900701  0.79781806  0.40760870
   0.41804558  0.76229940  0.40760870
   0.45083552  0.72404618  0.40760870
   0.40982211  0.68852753  0.40760870
   0.44261201  0.65027430  0.40760870
   0.40165064  0.61475565  0.40760870
   0.43444057  0.57650243  0.40760870
   0.39342713  0.54098377  0.40760870
   0.42621707  0.50273055  0.40760870
   0.38525567  0.46721190  0.40760870
   0.41804558  0.42895867  0.40760870
   0.37703216  0.39344002  0.40760870
   0.40982211  0.35518680  0.40760870
   0.36886070  0.31966811  0.40760870
   0.40165064  0.28141492  0.40760870
   0.36063720  0.24589623  0.40760870
   0.39342713  0.20764304  0.40760870
   0.35246573  0.17212437  0.40760870
   0.38525567  0.13387117  0.40760870
   0.34424223  0.09835249  0.40760870
   0.37703216  0.06009929  0.40760870
   0.33607076  0.02458061  0.40760870
   0.59016671  0.97814596  0.40760870
   0.54920533  0.94262731  0.40760870
   0.58194320  0.90437414  0.40760870
   0.54098183  0.86885543  0.40760870
   0.57377176  0.83060227  0.40760870
   0.53281039  0.79508355  0.40760870
   0.56554826  0.75683039  0.40760870
   0.52458688  0.72131168  0.40760870
   0.55737677  0.68305851  0.40760870
   0.51641540  0.64753980  0.40760870
   0.54920533  0.60928658  0.40760870
   0.50819189  0.57376792  0.40760870
   0.54098183  0.53551470  0.40760870
   0.50002045  0.49999605  0.40760870
   0.53281039  0.46174285  0.40760870
   0.49179695  0.42622417  0.40760870
   0.52458688  0.38797098  0.40760870
   0.48362546  0.35245229  0.40760870
   0.51641540  0.31419910  0.40760870
   0.47540195  0.27868042  0.40760870
   0.50819189  0.24042722  0.40760870
   0.46723051  0.20490852  0.40760870
   0.50002045  0.16665533  0.40760870
   0.45900701  0.13113665  0.40760870
   0.49179695  0.09288346  0.40760870
   0.45083552  0.05736477  0.40760870
   0.48362546  0.01911157  0.40760870
   0.66391802  0.97541146  0.40760870
   0.69670796  0.93715829  0.40760870
   0.65574658  0.90163958  0.40760870
   0.68853652  0.86338642  0.40760870
   0.64752308  0.82786771  0.40760870
   0.68031301  0.78961454  0.40760870
   0.63935164  0.75409583  0.40760870
   0.67214153  0.71584266  0.40760870
   0.63112813  0.68032395  0.40760870
   0.66391802  0.64207079  0.40760870
   0.62295665  0.60655207  0.40760870
   0.65574658  0.56829891  0.40760870
   0.61473314  0.53278020  0.40760870
   0.64752308  0.49452704  0.40760870
   0.60656170  0.45900832  0.40760870
   0.63935164  0.42075513  0.40760870
   0.59833819  0.38523644  0.40760870
   0.63112813  0.34698325  0.40760870
   0.59016671  0.31146457  0.40760870
   0.62295665  0.27321137  0.40760870
   0.58194320  0.23769269  0.40760870
   0.61473314  0.19943950  0.40760870
   0.57377176  0.16392081  0.40760870
   0.60656170  0.12569767  0.40760870
   0.56554826  0.09014894  0.40760870
   0.59833819  0.05192579  0.40760870
   0.55737677  0.01640711  0.40760870
   0.81147271  0.96994245  0.40760870
   0.77051134  0.93442379  0.40760870
   0.80330127  0.89617057  0.40760870
   0.76228783  0.86065191  0.40760870
   0.79507777  0.82239869  0.40760870
   0.75411639  0.78688003  0.40760870
   0.78690633  0.74862682  0.40760870
   0.74589289  0.71310816  0.40760870
   0.77868282  0.67485494  0.40760870
   0.73772140  0.63933622  0.40760870
   0.77051134  0.60108306  0.40760870
   0.72949789  0.56556435  0.40760870
   0.76228783  0.52731119  0.40760870
   0.72132646  0.49179247  0.40760870
   0.75411639  0.45353931  0.40760870
   0.71310295  0.41802063  0.40760870
   0.74589289  0.37976740  0.40760870
   0.70493146  0.34424875  0.40760870
   0.73772140  0.30602559  0.40760870
   0.69670796  0.27047687  0.40760870
   0.72949789  0.23225371  0.40760870
   0.68853652  0.19673503  0.40760870
   0.72132646  0.15848183  0.40760870
   0.68031301  0.12296315  0.40760870
   0.71310295  0.08470995  0.40760870
   0.67214153  0.04919127  0.40760870
   0.70493146  0.01093807  0.40760870
   0.88522402  0.96720794  0.40760870
   0.91801401  0.92895472  0.40760870
   0.87705259  0.89343606  0.40760870
   0.90984257  0.85518284  0.40760870
   0.86882913  0.81966418  0.40760870
   0.90161902  0.78141097  0.40760870
   0.86065759  0.74589231  0.40760870
   0.89344758  0.70763909  0.40760870
   0.85243414  0.67212043  0.40760870
   0.88522402  0.63386721  0.40760870
   0.84426270  0.59834856  0.40760870
   0.87705259  0.56009534  0.40760870
   0.83609116  0.52457668  0.40760870
   0.86882913  0.48635349  0.40760870
   0.82786771  0.45080477  0.40760870
   0.86065759  0.41258162  0.40760870
   0.81969622  0.37706296  0.40760870
   0.85243414  0.33880974  0.40760870
   0.81147271  0.30329108  0.40760870
   0.84426270  0.26503786  0.40760870
   0.80330127  0.22951919  0.40760870
   0.83609116  0.19126599  0.40760870
   0.79507777  0.15574731  0.40760870
   0.82786771  0.11749412  0.40760870
   0.78690633  0.08197543  0.40760870
   0.81969622  0.04372224  0.40760870
   0.77868282  0.00820355  0.40760870
   0.99181735  0.92622021  0.40760870
   0.98359389  0.85244834  0.40760870
   0.97542235  0.77867646  0.40760870
   0.96719889  0.70490458  0.40760870
   0.95902746  0.63113271  0.40760870
   0.99181735  0.59290958  0.40760870
   0.95080390  0.55739086  0.40760870
   0.98359389  0.51913764  0.40760870
   0.94263246  0.48361899  0.40760870
   0.97542235  0.44536579  0.40760870
   0.93440891  0.40984711  0.40760870
   0.96719889  0.37159392  0.40760870
   0.92623747  0.33607523  0.40760870
   0.95902746  0.29782205  0.40760870
   0.91801401  0.26230336  0.40760870
   0.95080390  0.22405015  0.40760870
   0.90984257  0.18853148  0.40760870
   0.94263246  0.15027827  0.40760870
   0.90161902  0.11475960  0.40760870
   0.93440891  0.07650640  0.40760870
   0.89344758  0.04098772  0.40760870
   0.92623747  0.00273452  0.40760870
   0.00000000  0.33334073  0.59239130
   0.00817146  0.25956882  0.59239130
   0.01639497  0.18579696  0.59239130
   0.02456642  0.11202508  0.59239130
   0.03278993  0.03825320  0.59239130
   0.00000000  0.00000000  0.59239130
   0.04096139  0.96447343  0.59239130
   0.00817146  0.92622021  0.59239130
   0.04918490  0.89070156  0.59239130
   0.01639497  0.85244834  0.59239130
   0.05735636  0.81692968  0.59239130
   0.02456642  0.77867646  0.59239130
   0.06557986  0.74315780  0.59239130
   0.03278993  0.70490458  0.59239130
   0.07375133  0.66938587  0.59239130
   0.04096139  0.63113271  0.59239130
   0.08197483  0.59561399  0.59239130
   0.04918490  0.55739086  0.59239130
   0.09014629  0.52187221  0.59239130
   0.05735636  0.48361899  0.59239130
   0.09836979  0.44810030  0.59239130
   0.06557986  0.40984711  0.59239130
   0.10654125  0.37432842  0.59239130
   0.07375133  0.33607523  0.59239130
   0.11476475  0.30055655  0.59239130
   0.08197483  0.26230336  0.59239130
   0.12293622  0.22678467  0.59239130
   0.09014629  0.18853148  0.59239130
   0.13115973  0.15301279  0.59239130
   0.09836979  0.11475960  0.59239130
   0.13933119  0.07924092  0.59239130
   0.10654125  0.04098772  0.59239130
   0.14755470  0.00546904  0.59239130
   0.11476475  0.96720794  0.59239130
   0.15572616  0.93168923  0.59239130
   0.12293622  0.89343606  0.59239130
   0.16394966  0.85791735  0.59239130
   0.13115973  0.81966418  0.59239130
   0.17212111  0.78414547  0.59239130
   0.13933119  0.74589231  0.59239130
   0.18034462  0.71037360  0.59239130
   0.14755470  0.67212043  0.59239130
   0.18851608  0.63660172  0.59239130
   0.15572616  0.59834856  0.59239130
   0.19673959  0.56282984  0.59239130
   0.16394966  0.52457668  0.59239130
   0.20491105  0.48905796  0.59239130
   0.17212111  0.45080477  0.59239130
   0.21313454  0.41528609  0.59239130
   0.18034462  0.37706296  0.59239130
   0.22130601  0.34154427  0.59239130
   0.18851608  0.30329108  0.59239130
   0.22952952  0.26777240  0.59239130
   0.19673959  0.22951919  0.59239130
   0.23770097  0.19400051  0.59239130
   0.20491105  0.15574731  0.59239130
   0.24592448  0.12022863  0.59239130
   0.21313454  0.08197543  0.59239130
   0.25409595  0.04645675  0.59239130
   0.22130601  0.00820355  0.59239130
   0.26231945  0.97267695  0.59239130
   0.22952952  0.93442379  0.59239130
   0.27049091  0.89890508  0.59239130
   0.23770097  0.86065191  0.59239130
   0.27871442  0.82513320  0.59239130
   0.24592448  0.78688003  0.59239130
   0.28688588  0.75136132  0.59239130
   0.25409595  0.71310816  0.59239130
   0.29505735  0.67758944  0.59239130
   0.26231945  0.63933622  0.59239130
   0.30328085  0.60381757  0.59239130
   0.27049091  0.56556435  0.59239130
   0.31145231  0.53004569  0.59239130
   0.27871442  0.49179247  0.59239130
   0.31967582  0.45627381  0.59239130
   0.28688588  0.41802063  0.59239130
   0.32784726  0.38250194  0.59239130
   0.29505735  0.34424875  0.59239130
   0.33607076  0.30873006  0.59239130
   0.30328085  0.27047687  0.59239130
   0.34424223  0.23495817  0.59239130
   0.31145231  0.19673503  0.59239130
   0.35246573  0.16121634  0.59239130
   0.31967582  0.12296315  0.59239130
   0.36063720  0.08744447  0.59239130
   0.32784726  0.04919127  0.59239130
   0.36886070  0.01367259  0.59239130
   0.33607076  0.97541146  0.59239130
   0.37703216  0.93989280  0.59239130
   0.34424223  0.90163958  0.59239130
   0.38525567  0.86612092  0.59239130
   0.35246573  0.82786771  0.59239130
   0.39342713  0.79234905  0.59239130
   0.36063720  0.75409583  0.59239130
   0.40165064  0.71857717  0.59239130
   0.36886070  0.68032395  0.59239130
   0.40982211  0.64480529  0.59239130
   0.37703216  0.60655207  0.59239130
   0.41804558  0.57103342  0.59239130
   0.38525567  0.53278020  0.59239130
   0.42621707  0.49726154  0.59239130
   0.39342713  0.45900832  0.59239130
   0.43444057  0.42348966  0.59239130
   0.40165064  0.38523644  0.59239130
   0.44261201  0.34971776  0.59239130
   0.40982211  0.31146457  0.59239130
   0.45083552  0.27594588  0.59239130
   0.41804558  0.23769269  0.59239130
   0.45900701  0.20217402  0.59239130
   0.42621707  0.16392081  0.59239130
   0.46723051  0.12840213  0.59239130
   0.43444057  0.09014894  0.59239130
   0.47540195  0.05463026  0.59239130
   0.44261201  0.01640711  0.59239130
   0.48362546  0.98088047  0.59239130
   0.45083552  0.94262731  0.59239130
   0.49179695  0.90710865  0.59239130
   0.45900701  0.86885543  0.59239130
   0.50002045  0.83333677  0.59239130
   0.46723051  0.79508355  0.59239130
   0.50819189  0.75956489  0.59239130
   0.47540195  0.72131168  0.59239130
   0.51641540  0.68579302  0.59239130
   0.48362546  0.64753980  0.59239130
   0.52458688  0.61202114  0.59239130
   0.49179695  0.57376792  0.59239130
   0.53281039  0.53824927  0.59239130
   0.50002045  0.49999605  0.59239130
   0.54098183  0.46447736  0.59239130
   0.50819189  0.42622417  0.59239130
   0.54920533  0.39070548  0.59239130
   0.51641540  0.35245229  0.59239130
   0.55737677  0.31693361  0.59239130
   0.52458688  0.27868042  0.59239130
   0.56554826  0.24316173  0.59239130
   0.53281039  0.20490852  0.59239130
   0.57377176  0.16938985  0.59239130
   0.54098183  0.13113665  0.59239130
   0.58194320  0.09561797  0.59239130
   0.54920533  0.05736477  0.59239130
   0.59016671  0.02184609  0.59239130
   0.55737677  0.98361509  0.59239130
   0.59833819  0.94809637  0.59239130
   0.56554826  0.90984316  0.59239130
   0.60656170  0.87432450  0.59239130
   0.57377176  0.83607128  0.59239130
   0.61473314  0.80055262  0.59239130
   0.58194320  0.76229940  0.59239130
   0.62295665  0.72678074  0.59239130
   0.59016671  0.68852753  0.59239130
   0.63112813  0.65300887  0.59239130
   0.59833819  0.61475565  0.59239130
   0.63935164  0.57923693  0.59239130
   0.60656170  0.54098377  0.59239130
   0.64752308  0.50546506  0.59239130
   0.61473314  0.46721190  0.59239130
   0.65574658  0.43169321  0.59239130
   0.62295665  0.39344002  0.59239130
   0.66391802  0.35792134  0.59239130
   0.63112813  0.31966811  0.59239130
   0.67214153  0.28414946  0.59239130
   0.63935164  0.24589623  0.59239130
   0.68031301  0.21037756  0.59239130
   0.64752308  0.17212437  0.59239130
   0.68853652  0.13660569  0.59239130
   0.65574658  0.09835249  0.59239130
   0.69670796  0.06283381  0.59239130
   0.66391802  0.02458061  0.59239130
   0.70493146  0.98908410  0.59239130
   0.67214153  0.95083088  0.59239130
   0.71310295  0.91531217  0.59239130
   0.68031301  0.87705900  0.59239130
   0.72132646  0.84154029  0.59239130
   0.68853652  0.80328713  0.59239130
   0.72949789  0.76776841  0.59239130
   0.69670796  0.72951525  0.59239130
   0.73772140  0.69399654  0.59239130
   0.70493146  0.65574337  0.59239130
   0.74589289  0.62022466  0.59239130
   0.71310295  0.58197150  0.59239130
   0.75411639  0.54645278  0.59239130
   0.72132646  0.50819962  0.59239130
   0.76228783  0.47268091  0.59239130
   0.72949789  0.43442772  0.59239130
   0.77051134  0.39890903  0.59239130
   0.73772140  0.36065584  0.59239130
   0.77868282  0.32513715  0.59239130
   0.74589289  0.28688396  0.59239130
   0.78690633  0.25136528  0.59239130
   0.75411639  0.21311208  0.59239130
   0.79507777  0.17759340  0.59239130
   0.76228783  0.13934021  0.59239130
   0.80330127  0.10382152  0.59239130
   0.77051134  0.06556832  0.59239130
   0.81147271  0.03004965  0.59239130
   0.77868282  0.99178857  0.59239130
   0.81969622  0.95626986  0.59239130
   0.78690633  0.91804673  0.59239130
   0.82786771  0.88252802  0.59239130
   0.79507777  0.84427485  0.59239130
   0.83609116  0.80875614  0.59239130
   0.80330127  0.77050298  0.59239130
   0.84426270  0.73498426  0.59239130
   0.81147271  0.69673110  0.59239130
   0.85243414  0.66121238  0.59239130
   0.81969622  0.62295922  0.59239130
   0.86065759  0.58744051  0.59239130
   0.82786771  0.54918729  0.59239130
   0.86882913  0.51366863  0.59239130
   0.83609116  0.47541544  0.59239130
   0.87705259  0.43989676  0.59239130
   0.84426270  0.40164356  0.59239130
   0.88522402  0.36612488  0.59239130
   0.85243414  0.32787169  0.59239130
   0.89344758  0.29235300  0.59239130
   0.86065759  0.25409981  0.59239130
   0.90161902  0.21858113  0.59239130
   0.86882913  0.18032792  0.59239130
   0.90984257  0.14480923  0.59239130
   0.87705259  0.10655604  0.59239130
   0.91801401  0.07103736  0.59239130
   0.88522402  0.03278416  0.59239130
   0.92623747  0.99725759  0.59239130
   0.89344758  0.95900437  0.59239130
   0.93440891  0.92348571  0.59239130
   0.90161902  0.88523249  0.59239130
   0.94263246  0.84971383  0.59239130
   0.90984257  0.81146061  0.59239130
   0.95080390  0.77594195  0.59239130
   0.91801401  0.73771877  0.59239130
   0.95902746  0.70220011  0.59239130
   0.92623747  0.66394689  0.59239130
   0.96719889  0.62842824  0.59239130
   0.93440891  0.59017501  0.59239130
   0.97542235  0.55465636  0.59239130
   0.94263246  0.51640314  0.59239130
   0.98359389  0.48088448  0.59239130
   0.95080390  0.44263126  0.59239130
   0.99181735  0.40711261  0.59239130
   0.95902746  0.36885938  0.59239130
   0.96719889  0.29508751  0.59239130
   0.97542235  0.22131563  0.59239130
   0.98359389  0.14754375  0.59239130
   0.99181735  0.07377188  0.59239130

 position of ions in cartesian coordinates  (Angst):
   0.63000000 32.00500110  7.50000000
   0.47200000 29.54999930  7.50000000
   0.31500000 27.09499930  7.50000000
   0.15700000 24.63999940  7.50000000
   0.00000000 22.18600080  7.50000000
   2.83500010 33.09600070  7.50000000
   2.04699990 31.91399960  7.50000000
   2.67700010 30.64100080  7.50000000
   1.89000000 29.45899970  7.50000000
   2.52000000 28.18700030  7.50000000
   1.73200000 27.00399970  7.50000000
   2.36200000 25.73200040  7.50000000
   1.57500010 24.54999930  7.50000000
   2.20499990 23.27700040  7.50000000
   1.41700010 22.09499930  7.50000000
   2.04699990 20.82200050  7.50000000
   1.26000000 19.63999940  7.50000000
   1.89000000 18.36700060  7.50000000
   1.10200000 17.18499950  7.50000000
   1.73200000 15.91199980  7.50000000
   0.94500000 14.72999960  7.50000000
   1.57500010 13.45699980  7.50000000
   0.78700000 12.27499960  7.50000000
   1.41700010 11.00199990  7.50000000
   0.63000000  9.81999970  7.50000000
   1.26000000  8.54700000  7.50000000
   0.47200000  7.36499980  7.50000000
   1.10200000  6.09200000  7.50000000
   0.31500000  4.90999980  7.50000000
   0.94500000  3.63700010  7.50000000
   0.15700000  2.45499990  7.50000000
   0.78700000  1.18200000  7.50000000
   0.00000000  0.00000000  7.50000000
   4.25199990 33.00500110  7.50000000
   4.88200000 31.73299980  7.50000000
   4.09499980 30.55100060  7.50000000
   4.72499990 29.27799990  7.50000000
   3.93700000 28.09600070  7.50000000
   4.56699990 26.82300000  7.50000000
   3.78000000 25.64100080  7.50000000
   4.40999990 24.36800000  7.50000000
   3.62200000 23.18600080  7.50000000
   4.25199990 21.91300020  7.50000000
   3.46499990 20.73100090  7.50000000
   4.09499980 19.45800020  7.50000000
   3.30699990 18.27599910  7.50000000
   3.93700000 17.00300030  7.50000000
   3.15000010 15.82100010  7.50000000
   3.78000000 14.54800040  7.50000000
   2.99200020 13.36600020  7.50000000
   3.62200000 12.09300040  7.50000000
   2.83500010 10.91100040  7.50000000
   3.46499990  9.63799960  7.50000000
   2.67700010  8.45600040  7.50000000
   3.30699990  7.18300010  7.50000000
   2.52000000  6.00099990  7.50000000
   3.15000010  4.72800020  7.50000000
   2.36200000  3.54600000  7.50000000
   2.99200020  2.27300000  7.50000000
   2.20499990  1.09100000  7.50000000
   7.08699990 32.82400130  7.50000000
   6.29899980 31.64200020  7.50000000
   6.92900000 30.36899950  7.50000000
   6.14200020 29.18700030  7.50000000
   6.77199990 27.91399960  7.50000000
   5.98400020 26.73200040  7.50000000
   6.61399990 25.45899970  7.50000000
   5.82700020 24.27700040  7.50000000
   6.45699980 23.00399970  7.50000000
   5.66900020 21.82200050  7.50000000
   6.29899980 20.54899980  7.50000000
   5.51200010 19.36700060  7.50000000
   6.14200020 18.09399990  7.50000000
   5.35500000 16.91200080  7.50000000
   5.98400020 15.63900000  7.50000000
   5.19700000 14.45699980  7.50000000
   5.82700020 13.18400000  7.50000000
   5.04000000 12.00199990  7.50000000
   5.66900020 10.72900010  7.50000000
   4.88200000  9.54700000  7.50000000
   5.51200010  8.27400020  7.50000000
   4.72499990  7.09200000  7.50000000
   5.35500000  5.81899980  7.50000000
   4.56699990  4.63700010  7.50000000
   5.19700000  3.36400010  7.50000000
   4.40999990  2.18199990  7.50000000
   5.04000000  0.90900000  7.50000000
   8.50399970 32.73300170  7.50000000
   9.13399980 31.45999910  7.50000000
   8.34700010 30.27799990  7.50000000
   8.97700020 29.00499920  7.50000000
   8.18900010 27.82300000  7.50000000
   8.81900030 26.54999930  7.50000000
   8.03199960 25.36800000  7.50000000
   8.66199970 24.09499930  7.50000000
   7.87400020 22.91300020  7.50000000
   8.50399970 21.63999940  7.50000000
   7.71700000 20.45800020  7.50000000
   8.34700010 19.18499950  7.50000000
   7.55900000 18.00300030  7.50000000
   8.18900010 16.72999960  7.50000000
   7.40200000 15.54800040  7.50000000
   8.03199960 14.27499960  7.50000000
   7.24400000 13.09300040  7.50000000
   7.87400020 11.81999970  7.50000000
   7.08699990 10.63799960  7.50000000
   7.71700000  9.36499980  7.50000000
   6.92900000  8.18299960  7.50000000
   7.55900000  6.90999980  7.50000000
   6.77199990  5.72800020  7.50000000
   7.40200000  4.45499990  7.50000000
   6.61399990  3.27300000  7.50000000
   7.24400000  2.00000000  7.50000000
   6.45699980  0.81800000  7.50000000
  11.33899980 32.55099870  7.50000000
  10.55200010 31.36899950  7.50000000
  11.18099980 30.09600070  7.50000000
  10.39400010 28.91399960  7.50000000
  11.02400020 27.64100080  7.50000000
  10.23700050 26.45899970  7.50000000
  10.86600020 25.18600080  7.50000000
  10.07900050 24.00399970  7.50000000
  10.70899970 22.73100090  7.50000000
   9.92200000 21.54899980  7.50000000
  10.55200010 20.27599910  7.50000000
   9.76400000 19.09399990  7.50000000
  10.39400010 17.82099920  7.50000000
   9.60700040 16.63900000  7.50000000
  10.23700050 15.36600020  7.50000000
   9.44900040 14.18400000  7.50000000
  10.07900050 12.91100040  7.50000000
   9.29199980 11.72900010  7.50000000
   9.92200000 10.45600040  7.50000000
   9.13399980  9.27400020  7.50000000
   9.76400000  8.00100040  7.50000000
   8.97700020  6.81899980  7.50000000
   9.60700040  5.54600000  7.50000000
   8.81900030  4.36399990  7.50000000
   9.44900040  3.09100010  7.50000000
   8.66199970  1.90900000  7.50000000
   9.29199980  0.63600000  7.50000000
  12.75599960 32.45999910  7.50000000
  13.38599970 31.18700030  7.50000000
  12.59900000 30.00499920  7.50000000
  13.22900010 28.73200040  7.50000000
  12.44100000 27.54999930  7.50000000
  13.07100010 26.27700040  7.50000000
  12.28400040 25.09499930  7.50000000
  12.91399960 23.82200050  7.50000000
  12.12600040 22.63999940  7.50000000
  12.75599960 21.36700060  7.50000000
  11.96900000 20.18499950  7.50000000
  12.59900000 18.91200080  7.50000000
  11.81099990 17.72999960  7.50000000
  12.44100000 16.45700080  7.50000000
  11.65400030 15.27499960  7.50000000
  12.28400040 14.00199990  7.50000000
  11.49600030 12.81999970  7.50000000
  12.12600040 11.54700000  7.50000000
  11.33899980 10.36499980  7.50000000
  11.96900000  9.09200000  7.50000000
  11.18099980  7.90999980  7.50000000
  11.81099990  6.63700010  7.50000000
  11.02400020  5.45499990  7.50000000
  11.65400030  4.18300010  7.50000000
  10.86600020  3.00000000  7.50000000
  11.49600030  1.72800010  7.50000000
  10.70899970  0.54600000  7.50000000
  15.59099960 32.27799990  7.50000000
  14.80399990 31.09600070  7.50000000
  15.43400000 29.82300000  7.50000000
  14.64599990 28.64100080  7.50000000
  15.27600000 27.36800000  7.50000000
  14.48900030 26.18600080  7.50000000
  15.11900040 24.91300020  7.50000000
  14.33100030 23.73100090  7.50000000
  14.96100040 22.45800020  7.50000000
  14.17399980 21.27599910  7.50000000
  14.80399990 20.00300030  7.50000000
  14.01599980 18.82099920  7.50000000
  14.64599990 17.54800040  7.50000000
  13.85900020 16.36599920  7.50000000
  14.48900030 15.09300040  7.50000000
  13.70100020 13.91100040  7.50000000
  14.33100030 12.63799960  7.50000000
  13.54399970 11.45600040  7.50000000
  14.17399980 10.18400000  7.50000000
  13.38599970  9.00100040  7.50000000
  14.01599980  7.72900010  7.50000000
  13.22900010  6.54700000  7.50000000
  13.85900020  5.27400020  7.50000000
  13.07100010  4.09200000  7.50000000
  13.70100020  2.81900000  7.50000000
  12.91399960  1.63700000  7.50000000
  13.54399970  0.36400000  7.50000000
  17.00799940 32.18700030  7.50000000
  17.63800050 30.91399960  7.50000000
  16.85099980 29.73200040  7.50000000
  17.48100090 28.45899970  7.50000000
  16.69300080 27.27700040  7.50000000
  17.32300000 26.00399970  7.50000000
  16.53599930 24.82200050  7.50000000
  17.16600040 23.54899980  7.50000000
  16.37800030 22.36700060  7.50000000
  17.00799940 21.09399990  7.50000000
  16.22100070 19.91200080  7.50000000
  16.85099980 18.63900000  7.50000000
  16.06399920 17.45700080  7.50000000
  16.69300080 16.18499950  7.50000000
  15.90600020 15.00199990  7.50000000
  16.53599930 13.72999960  7.50000000
  15.74899960 12.54800040  7.50000000
  16.37800030 11.27499960  7.50000000
  15.59099960 10.09300040  7.50000000
  16.22100070  8.81999970  7.50000000
  15.43400000  7.63800000  7.50000000
  16.06399920  6.36499980  7.50000000
  15.27600000  5.18300010  7.50000000
  15.90600020  3.91000020  7.50000000
  15.11900040  2.72800000  7.50000000
  15.74899960  1.45500010  7.50000000
  14.96100040  0.27300000  7.50000000
  19.05599980 30.82300000  7.50000000
  18.89800080 28.36800000  7.50000000
  18.74099920 25.91300020  7.50000000
  18.58300020 23.45800020  7.50000000
  18.42600060 21.00300030  7.50000000
  19.05599980 19.73100090  7.50000000
  18.26799970 18.54899980  7.50000000
  18.89800080 17.27599910  7.50000000
  18.11100010 16.09399990  7.50000000
  18.74099920 14.82100010  7.50000000
  17.95299920 13.63900000  7.50000000
  18.58300020 12.36600020  7.50000000
  17.79599960 11.18400000  7.50000000
  18.42600060  9.91100040  7.50000000
  17.63800050  8.72900010  7.50000000
  18.26799970  7.45599990  7.50000000
  17.48100090  6.27400020  7.50000000
  18.11100010  5.00099990  7.50000000
  17.32300000  3.81900000  7.50000000
  17.95299920  2.54600000  7.50000000
  17.16600040  1.36400000  7.50000000
  17.79599960  0.09100000  7.50000000
   0.00000000 11.09300040 10.89999960
   0.15700000  8.63799960 10.89999960
   0.31500000  6.18300010 10.89999960
   0.47200000  3.72800000 10.89999960
   0.63000000  1.27300000 10.89999960
   0.00000000  0.00000000 10.89999960
   0.78700000 32.09600070 10.89999960
   0.15700000 30.82300000 10.89999960
   0.94500000 29.64100080 10.89999960
   0.31500000 28.36800000 10.89999960
   1.10200000 27.18600080 10.89999960
   0.47200000 25.91300020 10.89999960
   1.26000000 24.73100090 10.89999960
   0.63000000 23.45800020 10.89999960
   1.41700010 22.27599910 10.89999960
   0.78700000 21.00300030 10.89999960
   1.57500010 19.82099920 10.89999960
   0.94500000 18.54899980 10.89999960
   1.73200000 17.36700060 10.89999960
   1.10200000 16.09399990 10.89999960
   1.89000000 14.91199980 10.89999960
   1.26000000 13.63900000 10.89999960
   2.04699990 12.45699980 10.89999960
   1.41700010 11.18400000 10.89999960
   2.20499990 10.00199990 10.89999960
   1.57500010  8.72900010 10.89999960
   2.36200000  7.54700000 10.89999960
   1.73200000  6.27400020 10.89999960
   2.52000000  5.09200000 10.89999960
   1.89000000  3.81900000 10.89999960
   2.67700010  2.63700010 10.89999960
   2.04699990  1.36400000 10.89999960
   2.83500010  0.18200000 10.89999960
   2.20499990 32.18700030 10.89999960
   2.99200020 31.00499920 10.89999960
   2.36200000 29.73200040 10.89999960
   3.15000010 28.54999930 10.89999960
   2.52000000 27.27700040 10.89999960
   3.30699990 26.09499930 10.89999960
   2.67700010 24.82200050 10.89999960
   3.46499990 23.63999940 10.89999960
   2.83500010 22.36700060 10.89999960
   3.62200000 21.18499950 10.89999960
   2.99200020 19.91200080 10.89999960
   3.78000000 18.72999960 10.89999960
   3.15000010 17.45700080 10.89999960
   3.93700000 16.27499960 10.89999960
   3.30699990 15.00199990 10.89999960
   4.09499980 13.81999970 10.89999960
   3.46499990 12.54800040 10.89999960
   4.25199990 11.36600020 10.89999960
   3.62200000 10.09300040 10.89999960
   4.40999990  8.91100040 10.89999960
   3.78000000  7.63800000 10.89999960
   4.56699990  6.45599990 10.89999960
   3.93700000  5.18300010 10.89999960
   4.72499990  4.00099990 10.89999960
   4.09499980  2.72800000 10.89999960
   4.88200000  1.54600000 10.89999960
   4.25199990  0.27300000 10.89999960
   5.04000000 32.36899950 10.89999960
   4.40999990 31.09600070 10.89999960
   5.19700000 29.91399960 10.89999960
   4.56699990 28.64100080 10.89999960
   5.35500000 27.45899970 10.89999960
   4.72499990 26.18600080 10.89999960
   5.51200010 25.00399970 10.89999960
   4.88200000 23.73100090 10.89999960
   5.66900020 22.54899980 10.89999960
   5.04000000 21.27599910 10.89999960
   5.82700020 20.09399990 10.89999960
   5.19700000 18.82099920 10.89999960
   5.98400020 17.63900000 10.89999960
   5.35500000 16.36599920 10.89999960
   6.14200020 15.18400000 10.89999960
   5.51200010 13.91100040 10.89999960
   6.29899980 12.72900010 10.89999960
   5.66900020 11.45600040 10.89999960
   6.45699980 10.27400020 10.89999960
   5.82700020  9.00100040 10.89999960
   6.61399990  7.81899980 10.89999960
   5.98400020  6.54700000 10.89999960
   6.77199990  5.36499980 10.89999960
   6.14200020  4.09200000 10.89999960
   6.92900000  2.91000020 10.89999960
   6.29899980  1.63700000 10.89999960
   7.08699990  0.45500000 10.89999960
   6.45699980 32.45999910 10.89999960
   7.24400000 31.27799990 10.89999960
   6.61399990 30.00499920 10.89999960
   7.40200000 28.82300000 10.89999960
   6.77199990 27.54999930 10.89999960
   7.55900000 26.36800000 10.89999960
   6.92900000 25.09499930 10.89999960
   7.71700000 23.91300020 10.89999960
   7.08699990 22.63999940 10.89999960
   7.87400020 21.45800020 10.89999960
   7.24400000 20.18499950 10.89999960
   8.03199960 19.00300030 10.89999960
   7.40200000 17.72999960 10.89999960
   8.18900010 16.54800040 10.89999960
   7.55900000 15.27499960 10.89999960
   8.34700010 14.09300040 10.89999960
   7.71700000 12.81999970 10.89999960
   8.50399970 11.63799960 10.89999960
   7.87400020 10.36499980 10.89999960
   8.66199970  9.18299960 10.89999960
   8.03199960  7.90999980 10.89999960
   8.81900030  6.72800020 10.89999960
   8.18900010  5.45499990 10.89999960
   8.97700020  4.27299980 10.89999960
   8.34700010  3.00000000 10.89999960
   9.13399980  1.81800000 10.89999960
   8.50399970  0.54600000 10.89999960
   9.29199980 32.64199830 10.89999960
   8.66199970 31.36899950 10.89999960
   9.44900040 30.18700030 10.89999960
   8.81900030 28.91399960 10.89999960
   9.60700040 27.73200040 10.89999960
   8.97700020 26.45899970 10.89999960
   9.76400000 25.27700040 10.89999960
   9.13399980 24.00399970 10.89999960
   9.92200000 22.82200050 10.89999960
   9.29199980 21.54899980 10.89999960
  10.07900050 20.36700060 10.89999960
   9.44900040 19.09399990 10.89999960
  10.23700050 17.91200080 10.89999960
   9.60700040 16.63900000 10.89999960
  10.39400010 15.45699980 10.89999960
   9.76400000 14.18400000 10.89999960
  10.55200010 13.00199990 10.89999960
   9.92200000 11.72900010 10.89999960
  10.70899970 10.54700000 10.89999960
  10.07900050  9.27400020 10.89999960
  10.86600020  8.09200000 10.89999960
  10.23700050  6.81899980 10.89999960
  11.02400020  5.63700010 10.89999960
  10.39400010  4.36399990 10.89999960
  11.18099980  3.18199990 10.89999960
  10.55200010  1.90900000 10.89999960
  11.33899980  0.72700000 10.89999960
  10.70899970 32.73300170 10.89999960
  11.49600030 31.55100060 10.89999960
  10.86600020 30.27799990 10.89999960
  11.65400030 29.09600070 10.89999960
  11.02400020 27.82300000 10.89999960
  11.81099990 26.64100080 10.89999960
  11.18099980 25.36800000 10.89999960
  11.96900000 24.18600080 10.89999960
  11.33899980 22.91300020 10.89999960
  12.12600040 21.73100090 10.89999960
  11.49600030 20.45800020 10.89999960
  12.28400040 19.27599910 10.89999960
  11.65400030 18.00300030 10.89999960
  12.44100000 16.82099920 10.89999960
  11.81099990 15.54800040 10.89999960
  12.59900000 14.36600020 10.89999960
  11.96900000 13.09300040 10.89999960
  12.75599960 11.91100040 10.89999960
  12.12600040 10.63799960 10.89999960
  12.91399960  9.45600040 10.89999960
  12.28400040  8.18299960 10.89999960
  13.07100010  7.00099990 10.89999960
  12.44100000  5.72800020 10.89999960
  13.22900010  4.54600000 10.89999960
  12.59900000  3.27300000 10.89999960
  13.38599970  2.09100010 10.89999960
  12.75599960  0.81800000 10.89999960
  13.54399970 32.91500100 10.89999960
  12.91399960 31.64200020 10.89999960
  13.70100020 30.45999910 10.89999960
  13.07100010 29.18700030 10.89999960
  13.85900020 28.00499920 10.89999960
  13.22900010 26.73200040 10.89999960
  14.01599980 25.54999930 10.89999960
  13.38599970 24.27700040 10.89999960
  14.17399980 23.09499930 10.89999960
  13.54399970 21.82200050 10.89999960
  14.33100030 20.63999940 10.89999960
  13.70100020 19.36700060 10.89999960
  14.48900030 18.18499950 10.89999960
  13.85900020 16.91200080 10.89999960
  14.64599990 15.72999960 10.89999960
  14.01599980 14.45699980 10.89999960
  14.80399990 13.27499960 10.89999960
  14.17399980 12.00199990 10.89999960
  14.96100040 10.81999970 10.89999960
  14.33100030  9.54700000 10.89999960
  15.11900040  8.36499980 10.89999960
  14.48900030  7.09200000 10.89999960
  15.27600000  5.90999980 10.89999960
  14.64599990  4.63700010 10.89999960
  15.43400000  3.45499990 10.89999960
  14.80399990  2.18199990 10.89999960
  15.59099960  1.00000000 10.89999960
  14.96100040 33.00500110 10.89999960
  15.74899960 31.82300000 10.89999960
  15.11900040 30.55100060 10.89999960
  15.90600020 29.36899950 10.89999960
  15.27600000 28.09600070 10.89999960
  16.06399920 26.91399960 10.89999960
  15.43400000 25.64100080 10.89999960
  16.22100070 24.45899970 10.89999960
  15.59099960 23.18600080 10.89999960
  16.37800030 22.00399970 10.89999960
  15.74899960 20.73100090 10.89999960
  16.53599930 19.54899980 10.89999960
  15.90600020 18.27599910 10.89999960
  16.69300080 17.09399990 10.89999960
  16.06399920 15.82100010 10.89999960
  16.85099980 14.63900000 10.89999960
  16.22100070 13.36600020 10.89999960
  17.00799940 12.18400000 10.89999960
  16.37800030 10.91100040 10.89999960
  17.16600040  9.72900010 10.89999960
  16.53599930  8.45600040 10.89999960
  17.32300000  7.27400020 10.89999960
  16.69300080  6.00099990 10.89999960
  17.48100090  4.81899980 10.89999960
  16.85099980  3.54600000 10.89999960
  17.63800050  2.36400010 10.89999960
  17.00799940  1.09100000 10.89999960
  17.79599960 33.18700030 10.89999960
  17.16600040 31.91399960 10.89999960
  17.95299920 30.73200040 10.89999960
  17.32300000 29.45899970 10.89999960
  18.11100010 28.27700040 10.89999960
  17.48100090 27.00399970 10.89999960
  18.26799970 25.82200050 10.89999960
  17.63800050 24.54999930 10.89999960
  18.42600060 23.36800000 10.89999960
  17.79599960 22.09499930 10.89999960
  18.58300020 20.91300020 10.89999960
  17.95299920 19.63999940 10.89999960
  18.74099920 18.45800020 10.89999960
  18.11100010 17.18499950 10.89999960
  18.89800080 16.00300030 10.89999960
  18.26799970 14.72999960 10.89999960
  19.05599980 13.54800040 10.89999960
  18.42600060 12.27499960 10.89999960
  18.58300020  9.81999970 10.89999960
  18.74099920  7.36499980 10.89999960
  18.89800080  4.90999980 10.89999960
  19.05599980  2.45499990 10.89999960



--------------------------------------------------------------------------------------------------------


 k-point  1 :   0.0000 0.0000 0.0000  plane waves:  213807

 maximum and minimum number of plane-waves per node :     35642    35631

 maximum number of plane-waves:    213807
 maximum index in each direction: 
   IXMAX=   31   IYMAX=   54   IZMAX=   30
[...]
   50        0.867   1.794   0.000   2.661
   51        0.867   1.794   0.000   2.661
   52        0.867   1.794   0.000   2.661
   53        0.867   1.793   0.000   2.660
   54        0.867   1.794   0.000   2.661
   55        0.867   1.794   0.000   2.661
   56        0.867   1.794   0.000   2.661
   57        0.867   1.794   0.000   2.661
   58        0.867   1.794   0.000   2.661
   59        0.867   1.794   0.000   2.661
   60        0.867   1.794   0.000   2.662
   61        0.867   1.793   0.000   2.661
   62        0.867   1.794   0.000   2.661
   63        0.867   1.794   0.000   2.661
   64        0.867   1.794   0.000   2.661
   65        0.867   1.793   0.000   2.660
   66        0.867   1.794   0.000   2.661
   67        0.867   1.794   0.000   2.661
   68        0.867   1.794   0.000   2.661
   69        0.867   1.794   0.000   2.661
   70        0.867   1.794   0.000   2.661
   71        0.867   1.794   0.000   2.661
   72        0.867   1.793   0.000   2.660
   73        0.867   1.794   0.000   2.661
   74        0.867   1.794   0.000   2.661
   75        0.867   1.794   0.000   2.661
   76        0.867   1.794   0.000   2.661
   77        0.867   1.793   0.000   2.660
   78        0.867   1.794   0.000   2.661
   79        0.867   1.794   0.000   2.661
   80        0.867   1.793   0.000   2.660
   81        0.867   1.794   0.000   2.660
   82        0.867   1.794   0.000   2.661
   83        0.867   1.794   0.000   2.661
   84        0.867   1.793   0.000   2.660
   85        0.867   1.794   0.000   2.661
   86        0.867   1.794   0.000   2.661
   87        0.867   1.794   0.000   2.661
   88        0.867   1.794   0.000   2.661
   89        0.867   1.794   0.000   2.661
   90        0.867   1.795   0.000   2.662
   91        0.867   1.793   0.000   2.660
   92        0.867   1.794   0.000   2.661
   93        0.867   1.793   0.000   2.661
   94        0.867   1.795   0.000   2.662
   95        0.867   1.793   0.000   2.660
   96        0.867   1.794   0.000   2.661
   97        0.867   1.794   0.000   2.661
   98        0.867   1.794   0.000   2.661
   99        0.867   1.794   0.000   2.661
  100        0.867   1.794   0.000   2.661
  101        0.867   1.794   0.000   2.662
  102        0.867   1.794   0.000   2.661
  103        0.867   1.794   0.000   2.661
  104        0.867   1.794   0.000   2.661
  105        0.867   1.794   0.000   2.661
  106        0.867   1.794   0.000   2.661
  107        0.867   1.794   0.000   2.661
  108        0.867   1.793   0.000   2.660
  109        0.867   1.794   0.000   2.661
  110        0.867   1.793   0.000   2.660
  111        0.867   1.794   0.000   2.661
  112        0.867   1.794   0.000   2.661
  113        0.867   1.794   0.000   2.661
  114        0.867   1.793   0.000   2.660
  115        0.867   1.794   0.000   2.661
  116        0.867   1.794   0.000   2.661
  117        0.867   1.793   0.000   2.660
  118        0.867   1.794   0.000   2.661
  119        0.867   1.793   0.000   2.660
  120        0.867   1.794   0.000   2.661
  121        0.867   1.793   0.000   2.660
  122        0.867   1.794   0.000   2.661
  123        0.867   1.793   0.000   2.660
  124        0.867   1.794   0.000   2.661
  125        0.867   1.794   0.000   2.661
  126        0.867   1.794   0.000   2.661
  127        0.867   1.794   0.000   2.661
  128        0.867   1.794   0.000   2.661
  129        0.867   1.794   0.000   2.661
  130        0.867   1.794   0.000   2.661
  131        0.867   1.794   0.000   2.661
  132        0.867   1.794   0.000   2.661
  133        0.867   1.794   0.000   2.661
  134        0.867   1.793   0.000   2.660
  135        0.867   1.794   0.000   2.661
  136        0.867   1.793   0.000   2.661
  137        0.867   1.794   0.000   2.661
  138        0.867   1.793   0.000   2.661
  139        0.867   1.794   0.000   2.661
  140        0.867   1.794   0.000   2.661
  141        0.867   1.794   0.000   2.661
  142        0.867   1.794   0.000   2.661
  143        0.867   1.794   0.000   2.661
  144        0.867   1.794   0.000   2.661
  145        0.867   1.794   0.000   2.661
  146        0.867   1.794   0.000   2.661
  147        0.867   1.794   0.000   2.661
  148        0.867   1.794   0.000   2.661
  149        0.867   1.794   0.000   2.661
  150        0.867   1.794   0.000   2.661
  151        0.867   1.794   0.000   2.661
  152        0.867   1.794   0.000   2.661
  153        0.867   1.794   0.000   2.661
  154        0.867   1.794   0.000   2.661
  155        0.867   1.794   0.000   2.661
  156        0.867   1.794   0.000   2.661
  157        0.867   1.794   0.000   2.661
  158        0.867   1.794   0.000   2.661
  159        0.867   1.794   0.000   2.661
  160        0.867   1.793   0.000   2.661
  161        0.867   1.794   0.000   2.661
  162        0.867   1.793   0.000   2.661
  163        0.867   1.795   0.000   2.662
  164        0.867   1.793   0.000   2.660
  165        0.867   1.794   0.000   2.661
  166        0.867   1.793   0.000   2.661
  167        0.867   1.794   0.000   2.661
  168        0.867   1.793   0.000   2.660
  169        0.867   1.794   0.000   2.661
  170        0.867   1.794   0.000   2.661
  171        0.867   1.794   0.000   2.661
  172        0.867   1.794   0.000   2.661
  173        0.867   1.793   0.000   2.660
  174        0.867   1.794   0.000   2.661
  175        0.867   1.794   0.000   2.661
  176        0.867   1.794   0.000   2.661
  177        0.867   1.794   0.000   2.661
  178        0.867   1.794   0.000   2.661
  179        0.867   1.794   0.000   2.661
  180        0.867   1.794   0.000   2.661
  181        0.867   1.794   0.000   2.661
  182        0.867   1.795   0.000   2.662
  183        0.867   1.794   0.000   2.661
  184        0.867   1.795   0.000   2.662
  185        0.867   1.794   0.000   2.661
  186        0.867   1.794   0.000   2.661
  187        0.867   1.794   0.000   2.661
  188        0.867   1.794   0.000   2.661
  189        0.867   1.794   0.000   2.661
  190        0.867   1.794   0.000   2.661
  191        0.867   1.794   0.000   2.661
  192        0.867   1.793   0.000   2.661
  193        0.867   1.795   0.000   2.662
  194        0.867   1.794   0.000   2.661
  195        0.867   1.794   0.000   2.661
  196        0.867   1.794   0.000   2.661
  197        0.867   1.794   0.000   2.661
  198        0.867   1.794   0.000   2.661
  199        0.867   1.794   0.000   2.661
  200        0.867   1.794   0.000   2.661
  201        0.867   1.794   0.000   2.661
  202        0.867   1.793   0.000   2.660
  203        0.867   1.794   0.000   2.661
  204        0.867   1.793   0.000   2.661
  205        0.867   1.795   0.000   2.662
  206        0.867   1.793   0.000   2.660
  207        0.867   1.794   0.000   2.661
  208        0.867   1.794   0.000   2.661
  209        0.867   1.794   0.000   2.661
  210        0.867   1.794   0.000   2.661
  211        0.867   1.793   0.000   2.660
  212        0.867   1.794   0.000   2.661
  213        0.867   1.793   0.000   2.661
  214        0.867   1.794   0.000   2.661
  215        0.867   1.793   0.000   2.661
  216        0.867   1.794   0.000   2.661
  217        0.867   1.794   0.000   2.661
  218        0.867   1.794   0.000   2.661
  219        0.867   1.794   0.000   2.661
  220        0.867   1.794   0.000   2.661
  221        0.867   1.794   0.000   2.661
  222        0.867   1.794   0.000   2.661
  223        0.867   1.794   0.000   2.661
  224        0.867   1.794   0.000   2.661
  225        0.867   1.794   0.000   2.661
  226        0.867   1.793   0.000   2.660
  227        0.867   1.793   0.000   2.661
  228        0.867   1.794   0.000   2.661
  229        0.867   1.793   0.000   2.661
  230        0.867   1.794   0.000   2.661
  231        0.867   1.794   0.000   2.661
  232        0.867   1.794   0.000   2.661
  233        0.867   1.794   0.000   2.661
  234        0.867   1.793   0.000   2.660
  235        0.867   1.795   0.000   2.662
  236        0.867   1.793   0.000   2.661
  237        0.867   1.794   0.000   2.661
  238        0.867   1.793   0.000   2.660
  239        0.867   1.794   0.000   2.661
  240        0.867   1.794   0.000   2.661
  241        0.867   1.794   0.000   2.661
  242        0.867   1.794   0.000   2.661
  243        0.867   1.794   0.000   2.661
  244        0.867   1.794   0.000   2.661
  245        0.867   1.794   0.000   2.661
  246        0.867   1.794   0.000   2.661
  247        0.867   1.794   0.000   2.661
  248        0.867   1.794   0.000   2.661
  249        0.867   1.794   0.000   2.661
  250        0.867   1.794   0.000   2.661
  251        0.867   1.794   0.000   2.661
  252        0.867   1.794   0.000   2.661
  253        0.867   1.794   0.000   2.661
  254        0.867   1.794   0.000   2.661
  255        0.867   1.794   0.000   2.661
  256        0.867   1.794   0.000   2.662
  257        0.867   1.793   0.000   2.660
  258        0.867   1.794   0.000   2.661
  259        0.867   1.793   0.000   2.661
  260        0.867   1.794   0.000   2.661
  261        0.867   1.793   0.000   2.660
  262        0.867   1.793   0.000   2.660
  263        0.867   1.794   0.000   2.661
  264        0.867   1.794   0.000   2.661
  265        0.867   1.794   0.000   2.661
  266        0.867   1.793   0.000   2.660
  267        0.867   1.795   0.000   2.662
  268        0.867   1.793   0.000   2.660
  269        0.867   1.794   0.000   2.661
  270        0.867   1.793   0.000   2.661
  271        0.867   1.794   0.000   2.662
  272        0.867   1.794   0.000   2.661
  273        0.867   1.794   0.000   2.661
  274        0.867   1.794   0.000   2.661
  275        0.867   1.794   0.000   2.661
  276        0.867   1.794   0.000   2.661
  277        0.867   1.794   0.000   2.661
  278        0.867   1.794   0.000   2.661
  279        0.867   1.794   0.000   2.661
  280        0.867   1.794   0.000   2.661
  281        0.867   1.794   0.000   2.661
  282        0.867   1.794   0.000   2.661
  283        0.867   1.794   0.000   2.661
  284        0.867   1.794   0.000   2.661
  285        0.867   1.793   0.000   2.660
  286        0.867   1.794   0.000   2.661
  287        0.867   1.794   0.000   2.661
  288        0.867   1.794   0.000   2.661
  289        0.867   1.794   0.000   2.661
  290        0.867   1.794   0.000   2.661
  291        0.867   1.794   0.000   2.662
  292        0.867   1.794   0.000   2.661
  293        0.867   1.794   0.000   2.661
  294        0.867   1.793   0.000   2.661
  295        0.867   1.794   0.000   2.661
  296        0.867   1.794   0.000   2.661
  297        0.867   1.794   0.000   2.661
  298        0.867   1.794   0.000   2.661
  299        0.867   1.793   0.000   2.661
  300        0.867   1.794   0.000   2.661
  301        0.867   1.794   0.000   2.661
  302        0.867   1.794   0.000   2.661
  303        0.867   1.793   0.000   2.660
  304        0.867   1.794   0.000   2.661
  305        0.867   1.794   0.000   2.661
  306        0.867   1.794   0.000   2.661
  307        0.867   1.793   0.000   2.660
  308        0.867   1.793   0.000   2.660
  309        0.867   1.794   0.000   2.661
  310        0.867   1.794   0.000   2.661
  311        0.867   1.794   0.000   2.660
  312        0.867   1.793   0.000   2.660
  313        0.867   1.794   0.000   2.661
  314        0.867   1.794   0.000   2.661
  315        0.867   1.793   0.000   2.660
  316        0.867   1.794   0.000   2.661
  317        0.867   1.794   0.000   2.661
  318        0.867   1.794   0.000   2.661
  319        0.867   1.794   0.000   2.661
  320        0.867   1.793   0.000   2.661
  321        0.867   1.795   0.000   2.662
  322        0.867   1.794   0.000   2.661
  323        0.867   1.794   0.000   2.661
  324        0.867   1.794   0.000   2.661
  325        0.867   1.793   0.000   2.661
  326        0.867   1.794   0.000   2.661
  327        0.867   1.793   0.000   2.660
  328        0.867   1.794   0.000   2.661
  329        0.867   1.793   0.000   2.661
  330        0.867   1.794   0.000   2.661
  331        0.867   1.794   0.000   2.661
  332        0.867   1.794   0.000   2.661
  333        0.867   1.794   0.000   2.661
  334        0.867   1.793   0.000   2.661
  335        0.867   1.794   0.000   2.661
  336        0.867   1.793   0.000   2.660
  337        0.867   1.794   0.000   2.661
  338        0.867   1.793   0.000   2.660
  339        0.867   1.794   0.000   2.661
  340        0.867   1.794   0.000   2.661
  341        0.867   1.794   0.000   2.661
  342        0.867   1.794   0.000   2.661
  343        0.867   1.794   0.000   2.661
  344        0.867   1.794   0.000   2.661
  345        0.867   1.795   0.000   2.662
  346        0.867   1.794   0.000   2.661
  347        0.867   1.794   0.000   2.661
  348        0.867   1.794   0.000   2.661
  349        0.867   1.794   0.000   2.661
  350        0.867   1.794   0.000   2.661
  351        0.867   1.793   0.000   2.660
  352        0.867   1.795   0.000   2.662
  353        0.867   1.793   0.000   2.661
  354        0.867   1.795   0.000   2.662
  355        0.867   1.793   0.000   2.660
  356        0.867   1.795   0.000   2.662
  357        0.867   1.793   0.000   2.661
  358        0.867   1.794   0.000   2.661
  359        0.867   1.794   0.000   2.661
  360        0.867   1.794   0.000   2.661
  361        0.867   1.794   0.000   2.661
  362        0.867   1.793   0.000   2.660
  363        0.867   1.794   0.000   2.661
  364        0.867   1.793   0.000   2.661
  365        0.867   1.794   0.000   2.661
  366        0.867   1.793   0.000   2.660
  367        0.867   1.794   0.000   2.661
  368        0.867   1.794   0.000   2.661
  369        0.867   1.794   0.000   2.661
  370        0.867   1.794   0.000   2.661
  371        0.867   1.794   0.000   2.661
  372        0.867   1.794   0.000   2.661
  373        0.867   1.794   0.000   2.661
  374        0.867   1.794   0.000   2.661
  375        0.867   1.794   0.000   2.661
  376        0.867   1.794   0.000   2.661
  377        0.867   1.793   0.000   2.660
  378        0.867   1.794   0.000   2.661
  379        0.867   1.793   0.000   2.661
  380        0.867   1.794   0.000   2.661
  381        0.867   1.793   0.000   2.660
  382        0.867   1.794   0.000   2.661
  383        0.867   1.793   0.000   2.661
  384        0.867   1.794   0.000   2.661
  385        0.867   1.793   0.000   2.660
  386        0.867   1.793   0.000   2.660
  387        0.867   1.795   0.000   2.662
  388        0.867   1.793   0.000   2.661
  389        0.867   1.794   0.000   2.661
  390        0.867   1.793   0.000   2.660
  391        0.867   1.795   0.000   2.661
  392        0.867   1.793   0.000   2.661
  393        0.867   1.794   0.000   2.661
  394        0.867   1.793   0.000   2.660
  395        0.867   1.794   0.000   2.661
  396        0.867   1.794   0.000   2.661
  397        0.867   1.794   0.000   2.661
  398        0.867   1.794   0.000   2.661
  399        0.867   1.794   0.000   2.661
  400        0.867   1.794   0.000   2.661
  401        0.867   1.794   0.000   2.661
  402        0.867   1.794   0.000   2.661
  403        0.867   1.794   0.000   2.661
  404        0.867   1.794   0.000   2.661
  405        0.867   1.794   0.000   2.661
  406        0.867   1.794   0.000   2.661
  407        0.867   1.794   0.000   2.661
  408        0.867   1.794   0.000   2.661
  409        0.867   1.794   0.000   2.661
  410        0.867   1.794   0.000   2.662
  411        0.867   1.794   0.000   2.661
  412        0.867   1.794   0.000   2.661
  413        0.867   1.794   0.000   2.661
  414        0.867   1.794   0.000   2.661
  415        0.867   1.795   0.000   2.662
  416        0.867   1.793   0.000   2.661
  417        0.867   1.794   0.000   2.661
  418        0.867   1.794   0.000   2.661
  419        0.867   1.794   0.000   2.661
  420        0.867   1.794   0.000   2.661
  421        0.867   1.794   0.000   2.661
  422        0.867   1.794   0.000   2.661
  423        0.867   1.794   0.000   2.661
  424        0.867   1.794   0.000   2.661
  425        0.867   1.794   0.000   2.661
  426        0.867   1.795   0.000   2.662
  427        0.867   1.794   0.000   2.661
  428        0.867   1.794   0.000   2.661
  429        0.867   1.794   0.000   2.661
  430        0.867   1.794   0.000   2.661
  431        0.867   1.794   0.000   2.661
  432        0.867   1.794   0.000   2.661
  433        0.867   1.794   0.000   2.661
  434        0.867   1.794   0.000   2.661
  435        0.867   1.793   0.000   2.660
  436        0.867   1.794   0.000   2.661
  437        0.867   1.794   0.000   2.661
  438        0.867   1.794   0.000   2.661
  439        0.867   1.794   0.000   2.661
  440        0.867   1.794   0.000   2.661
  441        0.867   1.794   0.000   2.661
  442        0.867   1.794   0.000   2.661
  443        0.867   1.794   0.000   2.661
  444        0.867   1.794   0.000   2.661
  445        0.867   1.794   0.000   2.661
  446        0.867   1.794   0.000   2.661
  447        0.867   1.793   0.000   2.661
  448        0.867   1.794   0.000   2.661
  449        0.867   1.793   0.000   2.661
  450        0.867   1.794   0.000   2.661
  451        0.867   1.793   0.000   2.660
  452        0.867   1.794   0.000   2.661
  453        0.867   1.794   0.000   2.661
  454        0.867   1.794   0.000   2.661
  455        0.867   1.794   0.000   2.661
  456        0.867   1.793   0.000   2.660
  457        0.867   1.795   0.000   2.662
  458        0.867   1.793   0.000   2.660
  459        0.867   1.794   0.000   2.661
  460        0.867   1.793   0.000   2.660
  461        0.867   1.794   0.000   2.661
  462        0.867   1.794   0.000   2.661
  463        0.867   1.794   0.000   2.661
  464        0.867   1.794   0.000   2.661
  465        0.867   1.794   0.000   2.661
  466        0.867   1.794   0.000   2.661
  467        0.867   1.794   0.000   2.661
  468        0.867   1.794   0.000   2.661
  469        0.867   1.794   0.000   2.661
  470        0.867   1.794   0.000   2.661
  471        0.867   1.794   0.000   2.661
  472        0.867   1.794   0.000   2.661
  473        0.867   1.793   0.000   2.660
  474        0.867   1.794   0.000   2.661
  475        0.867   1.793   0.000   2.661
  476        0.867   1.795   0.000   2.662
  477        0.867   1.793   0.000   2.660
  478        0.867   1.794   0.000   2.661
  479        0.867   1.794   0.000   2.661
  480        0.867   1.794   0.000   2.661
  481        0.867   1.794   0.000   2.661
  482        0.867   1.793   0.000   2.660
  483        0.867   1.794   0.000   2.661
  484        0.867   1.793   0.000   2.661
  485        0.867   1.793   0.000   2.660
  486        0.867   1.794   0.000   2.661
  487        0.867   1.794   0.000   2.661
  488        0.867   1.794   0.000   2.661
--------------------------------------------------
tot        423.140 875.402   0.0001298.541


 total amount of memory used by VASP MPI-rank0   211834. kBytes
=======================================================================

   base      :      30000. kBytes
   nonlr-proj:      16447. kBytes
   fftplans  :      19406. kBytes
   grid      :      27267. kBytes
   one-center:        251. kBytes
   wavefun   :     118463. kBytes

  
  
 General timing and accounting informations for this job:
 ========================================================
  
                  Total CPU time used (sec):    68248.594
                            User time (sec):    20290.162
                          System time (sec):    47958.434
                         Elapsed time (sec):    68311.081
  
                   Maximum memory used (kb):      350152.
                   Average memory used (kb):           0.
  
                          Minor page faults:     32869657
                          Major page faults:           35
                 Voluntary context switches:         8251
