ITEM: TIMESTEP
0
ITEM: NUMBER OF ATOMS
1016
ITEM: BOX BOUNDS pp pp pp
0.0000000000000000e+00 2.7677714300000002e+01
0.0000000000000000e+00 4.7939207500000002e+01
0.0000000000000000e+00 1.8399999999999999e+01
ITEM: ATOMS id type x y z c_csym c_2[1] c_2[2] c_2[3] c_2[4] c_2[5] c_2[6] c_3 
38 1 1.199 11.01 3 6.02272 -174563 -104176 -86974 19374.7 7748.45 -8730.08 -7.41437 
39 1 0.436 9.814 3 6.02103 -127369 -141567 33453.3 19300.1 54234.4 -417.409 -7.42144 
40 1 1.09 8.556 3 6.02647 -190807 -130428 -79945.1 -1714.2 19141.1 -10488.7 -7.41485 
41 1 0.327 7.361 3 6.0243 -123183 -135369 -21860.3 -16724.9 56999.1 -1969.35 -7.41782 
42 1 0.981 6.102 3 6.02073 -181849 -98367.7 -83862 -16546.2 26926.1 -10828.4 -7.41446 
43 1 0.218 4.907 3 6.0278 -121359 -165264 -70050 1602.1 46874.5 -2191.83 -7.41572 
44 1 0.872 3.649 3 6.02667 -178473 -137913 -96218 -1559.83 25658.3 -10188 -7.41419 
45 1 0.109 2.454 3 6.02083 -117801 -123228 -101447 -14527.9 25954.8 -1426.09 -7.4135 
46 1 0.763 1.195 3 6.02418 -165169 -110141 -108618 -19908.9 11287.8 -8531.32 -7.4128 
47 1 0 0 3 6.02632 -127890 -141632 -111605 -5870.57 -24.542 -19.7665 -7.41316 
78 1 2.615 10.947 3 6.02647 -179487 -169907 44944.6 5428.37 45337.1 11959 -7.42203 
79 1 3.269 9.689 3 6.02199 -131029 -107949 -59253.3 17860.7 9049.78 -26802.4 -7.41548 
80 1 2.506 8.493 3 6.02511 -159125 -137587 -5034.36 27361.1 53852 3497.04 -7.41913 
81 1 3.16 7.235 3 6.02697 -141089 -135152 -58554.7 -3281.68 20936 -31337.9 -7.4161 
82 1 2.397 6.04 3 6.02073 -156755 -130754 -52992.4 -4391.2 49343.6 -4811.79 -7.41622 
83 1 3.051 4.781 3 6.02424 -131242 -105829 -69961.8 -24801.2 26236.8 -32924.5 -7.41463 
84 1 2.288 3.586 3 6.02654 -160735 -158385 -88341.2 9349.88 33186.8 -12517.6 -7.41453 
85 1 2.942 2.328 3 6.02203 -117665 -114588 -87840.2 9347.67 20311.4 -31492.8 -7.414 
86 1 2.179 1.132 3 6.02283 -151819 -115170 -104299 23320.7 9243.83 -18394.4 -7.41331 
117 1 5.448 10.821 3 6.02353 -154360 -174851 -26063.3 309.571 -5635.01 -33032.1 -7.4185 
118 1 4.686 9.626 3 6.01889 -134302 -157695 -4579.64 -12082.2 42841.3 12986.3 -7.41943 
119 1 5.339 8.367 3 6.01889 -149076 -139982 -17857.3 -23726.4 10454.8 -42122.7 -7.41867 
120 1 4.577 7.172 3 6.02353 -133755 -190680 -45691.3 9623.29 43312.9 -428.504 -7.41738 
121 1 5.23 5.914 3 6.01899 -143425 -145259 -26126.6 9586.23 22472.7 -46658.7 -7.41832 
122 1 4.468 4.718 3 6.01899 -117657 -160404 -77182.5 30387.3 31933.7 -13644.4 -7.41526 
123 1 5.121 3.46 3 6.02354 -146976 -180119 -47015.1 -14250.7 25455.1 -46799.7 -7.41707 
124 1 4.359 2.265 3 6.02354 -129248 -187225 -91259.6 10301.3 12182.9 -25579.9 -7.41457 
125 1 5.012 1.007 3 6.01792 -123935 -148347 -71799 5998.22 16480.2 -42079.1 -7.41545 
155 1 7.628 11.953 3 6.02317 -175827 -122477 6938.46 -11048.7 -23694.8 -28680.1 -7.41967 
156 1 6.865 10.758 3 6.02667 -132940 -154149 -21281.2 8186.73 26870.2 21908.9 -7.418 
157 1 7.519 9.5 3 6.02272 -178046 -125277 26925.5 21786.4 -4708.6 -40746.4 -7.42099 
158 1 6.756 8.304 3 6.02199 -112300 -128440 -51779.3 31687.1 31897.4 6951.72 -7.41592 
159 1 7.41 7.046 3 6.02647 -189173 -156511 26548.5 -3463.74 13908.1 -48479.7 -7.42095 
160 1 6.647 5.851 3 6.02624 -115538 -160990 -75438.8 15001.9 25122 -8283.99 -7.41463 
161 1 7.301 4.593 3 6.02181 -173451 -126859 6432.44 11016.5 25767.8 -50976.4 -7.41971 
162 1 6.538 3.397 3 6.02203 -102917 -129528 -82921.5 35343.3 9464.86 -22700.4 -7.41425 
163 1 7.192 2.139 3 6.02652 -174046 -159431 -26366.3 -12484.3 26654.9 -48311.9 -7.418 
164 1 6.429 0.944 3 6.02572 -117267 -151316 -72125.8 10010 -9664.39 -35091.7 -7.41481 
194 1 9.044 11.89 3 6.02182 -172309 -116437 -48397.5 25765.2 9854.77 25111.8 -7.41647 
196 1 8.935 9.437 3 6.02647 -173369 -152274 -69002.8 10998.2 18192.4 12726.3 -7.41537 
198 1 8.826 6.983 3 6.02272 -153663 -125663 -84853.3 34347.9 15878.3 -762.022 -7.4145 
200 1 8.717 4.53 3 6.02317 -154233 -125537 -85078.3 -175.598 4171.73 -14168.2 -7.41411 
202 1 8.608 2.076 3 6.02667 -160319 -161558 -67003.3 17801.9 -12016.6 -26557.2 -7.41587 
511 2 0.218 11.073 6.4 6.02211 -131205 -146714 60950.1 16501.5 47487.7 3669.65 -7.42265 
512 2 0.327 8.619 6.4 6.02748 -176292 -176761 6344.5 1175.92 57012.4 3151.49 -7.42012 
513 2 0.436 6.165 6.4 6.02281 -157590 -144908 -46831.5 -17609.3 53280.9 1245.03 -7.41669 
514 2 0.545 3.712 6.4 6.02691 -164899 -170053 -87822.3 2568.38 37441.1 -1825.12 -7.41441 
515 2 0.654 1.258 6.4 6.0238 -154659 -126167 -108467 -12598.7 13115.3 -5619.94 -7.41331 
516 2 0 0 6.4 6.02743 -127020 -142339 -111589 -532.416 29.12 -20.4546 -7.41318 
546 2 1.635 11.135 6.4 6.01732 -147018 -132493 -84869 22389.3 8593.92 -13281.8 -7.41447 
547 2 2.397 9.94 6.4 6.02505 -131460 -186101 26482.5 20303.6 48967.4 12186.4 -7.42156 
548 2 1.743 8.682 6.4 6.02276 -187799 -131694 -75489.2 1117.18 19695.1 -17626.8 -7.41544 
549 2 2.506 7.487 6.4 6.02033 -107825 -135184 -26044.4 23584.1 51636.7 3936.47 -7.41785 
550 2 1.852 6.228 6.4 6.02236 -183007 -99706.4 -77261.8 17142.8 27803 -20814.8 -7.41445 
551 2 2.615 5.033 6.4 6.02505 -108515 -164295 -69989.1 11463.4 41592.6 -6302.61 -7.41563 
552 2 1.961 3.775 6.4 6.02227 -172007 -107879 -88389.3 -21876.7 27320.2 -22516.3 -7.41419 
553 2 2.724 2.579 6.4 6.02031 -97225.1 -130426 -96286.4 -7040.7 21653.6 -17149.5 -7.41382 
554 2 2.07 1.321 6.4 6.02569 -172981 -145721 -101416 -4720.31 14142.5 -21866.8 -7.4135 
555 2 2.833 0.126 6.4 6.02551 -114257 -145601 -100405 17642.4 -2262.51 -26352 -7.41356 
585 2 4.468 11.261 6.4 6.02272 -168444 -134916 26837.5 -10885.6 33057.9 24384.1 -7.42098 
586 2 3.814 10.003 6.4 6.02601 -138889 -139356 -51909 8894.17 9987.98 -31081.6 -7.41645 
587 2 4.577 8.808 6.4 6.02317 -163103 -131602 -17820.4 28393 41612.3 11995.1 -7.41799 
588 2 3.923 7.549 6.4 6.02033 -131926 -106377 -45732.8 16884.8 22048.6 -37238.2 -7.4167 
589 2 4.686 6.354 6.4 6.02667 -158427 -165634 -58779.6 12102.2 37635.4 -2517.79 -7.41632 
590 2 4.032 5.096 6.4 6.02662 -132065 -143531 -52940.4 -2958.25 28877.4 -40272 -7.41672 
591 2 4.795 3.901 6.4 6.02073 -151621 -128581 -83827.6 28690.5 22737.4 -17970.1 -7.41445 
592 2 4.141 2.642 6.4 6.02424 -120356 -113557 -69989.1 11031.2 25393.5 -39480.9 -7.41504 
593 2 4.904 1.447 6.4 6.02381 -160374 -157762 -87549.4 14967.6 2042.61 -32141 -7.41467 
594 2 4.25 0.189 6.4 6.02588 -125233 -161766 -86452.3 -95.5379 9885.94 -34624.4 -7.41474 
624 2 5.884 11.324 6.4 6.02647 -183904 -151951 -21263.4 8405.43 -5574.95 -34145.3 -7.41812 
625 2 6.647 10.129 6.4 6.02624 -127743 -160288 -26000.1 14437.2 25757.6 21460.4 -7.41748 
626 2 5.993 8.871 6.4 6.02181 -178622 -119016 -4382.31 -15864.6 10154.4 -43582.7 -7.41905 
627 2 6.756 7.675 6.4 6.02203 -106793 -131245 -59237.9 -2364.23 27832.2 5595.46 -7.4156 
628 2 6.102 6.417 6.4 6.02654 -189417 -147605 -4971.13 -2098.34 23918.5 -48334.8 -7.41934 
629 2 6.865 5.222 6.4 6.02424 -105213 -128845 -79997.4 35564.3 18668 -11313.6 -7.41404 
630 2 6.211 3.963 6.4 6.02073 -177937 -116637 -21904 7118.97 30095.4 -48427.5 -7.41803 
631 2 6.974 2.768 6.4 6.02667 -156870 -162271 -80075.3 15033.5 1879.71 -27519.8 -7.4151 
632 2 6.32 1.51 6.4 6.02657 -171539 -156309 -48125.8 -13834.7 25001.8 -43920.5 -7.41686 
633 2 7.083 0.315 6.4 6.02272 -165841 -154424 -59426.8 15130.2 -15894.3 -40439.4 -7.41591 
663 2 8.717 11.45 6.4 6.02353 -147688 -177339 -46734.7 14013.3 8299.49 26739.2 -7.41731 
664 2 8.064 10.192 6.4 6.01899 -143511 -157762 34002.9 -9677.52 -7525.1 -38849.9 -7.42182 
665 2 8.826 8.996 6.4 6.01899 -126380 -153656 -71444.7 -2158.83 15087.3 12976.6 -7.41558 
666 2 8.173 7.738 6.4 6.02354 -157192 -188733 44935.2 4899.72 12310 -45228.3 -7.42244 
667 2 8.935 6.543 6.4 6.02354 -128115 -189479 -87006.9 19199 11487 -2346.19 -7.41475 
668 2 8.282 5.285 6.4 6.01899 -143750 -160321 33272.3 -19426.5 27629 -46734.3 -7.42148 
669 2 9.044 4.089 6.4 6.02159 -106047 -147976 -83390.8 11697.6 -830.445 -17428.5 -7.41485 
670 2 8.39 2.831 6.4 6.02371 -180073 -157132 3495.43 -9353.71 32924.9 -43750.3 -7.42005 
671 2 9.153 1.636 6.4 6.02424 -103651 -131570 -58539.4 32926.8 -16805.4 -30269.1 -7.41572 
672 2 8.499 0.377 6.4 6.02227 -161573 -120098 -34305.2 -4250.46 26552.1 -36761.6 -7.4174 
195 1 9.698 10.632 3 6.02624 -140397 -165621 61428.3 1812.13 -22054.8 -28933.3 -7.42262 
197 1 9.589 8.179 3 6.02199 -130722 -134606 74018 14942.4 1048.91 -38020 -7.42352 
199 1 9.48 5.725 3 6.02601 -136464 -163890 60854.4 -7097.7 20705.7 -42884.5 -7.42328 
201 1 9.371 3.271 3 6.02033 -122037 -131980 26528.7 -24427.1 30951.4 -43180.3 -7.42093 
203 1 9.262 0.818 3 6.02697 -115441 -160795 -17816.3 -9761.56 28982.6 -39021.1 -7.41849 
233 1 11.877 11.765 3 6.01899 -140719 -169588 74196.9 18271.7 -37593.6 -11961.2 -7.4241 
234 1 11.115 10.569 3 6.01899 -133661 -141710 -88454.1 20692.8 5380.16 12228.8 -7.41473 
235 1 11.768 9.311 3 6.02354 -157201 -199923 102710 -3839.11 -13574 -18607 -7.42589 
236 1 11.006 8.116 3 6.02424 -120881 -131398 -99706.5 -24075.7 7127.56 4190.65 -7.41354 
237 1 11.66 6.857 3 6.01899 -183490 -134242 102632 -15533.8 11027.9 -23913 -7.42557 
238 1 10.897 5.662 3 6.02662 -107345 -158540 -96511.7 10669.6 -687.033 -4577.71 -7.41421 
239 1 11.551 4.404 3 6.02667 -181275 -171040 74091 -2219.02 29075.4 -26681.5 -7.4241 
240 1 10.788 3.209 3 6.02033 -103378 -129082 -73988.7 -4071.52 -14219.8 -13513.3 -7.41506 
241 1 11.442 1.95 3 6.02418 -168612 -135480 26904.6 -22670.3 35613.3 -26484.2 -7.42064 
242 1 10.679 0.755 3 6.02551 -112583 -159776 -34190.4 4645.99 -28057 -21719.2 -7.41752 
272 1 13.294 11.702 3 6.02424 -128137 -102961 -96609.9 -19261.7 -3650.32 2910.94 -7.4131 
273 1 13.948 10.443 3 6.02073 -181207 -138209 102572 -13990.6 -26352.9 2481.01 -7.42536 
274 1 13.185 9.248 3 6.02703 -121989 -144916 -108357 961.134 1539.97 1870.65 -7.41313 
275 1 13.839 7.99 3 6.02667 -188393 -172505 118280 339.615 -73.0672 -7.06162 -7.4267 
276 1 13.076 6.795 3 6.02051 -158045 -117209 -108409 -10750.6 -2340.25 359.396 -7.41306 
277 1 13.73 5.536 3 6.02316 -182155 -137265 102769 -17215.6 22961.5 -2444.84 -7.42511 
278 1 12.967 4.341 3 6.02654 -161553 -157760 -88171.2 3952.63 -13314.3 -1449.42 -7.41451 
279 1 13.621 3.083 3 6.02181 -169673 -140681 61481.7 19003.3 36092.8 -4724.34 -7.42303 
280 1 12.858 1.887 3 6.02283 -153272 -135333 -48316.2 22423.3 -26712.7 -4075.08 -7.4165 
281 1 13.512 0.629 3 6.02683 -121500 -164937 7014.93 1199.03 36689.7 -6088.32 -7.41939 
311 1 16.127 11.576 3 6.02662 -129847 -172094 74176.5 -4469.51 -33362 18074.8 -7.42417 
312 1 15.364 10.381 3 6.02073 -169535 -107794 -99620.1 -18627.3 44.8299 -8128.83 -7.41355 
313 1 16.018 9.122 3 6.02424 -131774 -137399 102677 -20679.3 -9256.59 21232.4 -7.42515 
314 1 15.255 7.927 3 6.02654 -166236 -148387 -108367 -5267.15 853.95 -2207.12 -7.41337 
315 1 15.909 6.669 3 6.02203 -127007 -141155 102559 18115.3 15248.9 21511 -7.42554 
316 1 15.146 5.473 3 6.02272 -149171 -128139 -99637.5 14275.8 -7142.8 4157.91 -7.41355 
317 1 15.8 4.215 3 6.02601 -132393 -172605 74066.5 755.882 32410.2 19885.8 -7.42379 
318 1 15.037 3.02 3 6.02364 -159845 -164045 -69029.6 -4657.92 -20135.4 9262.41 -7.41557 
319 1 15.691 1.762 3 6.01938 -124070 -154762 26702.9 8343 37696.4 16289.8 -7.42115 
320 1 14.929 0.566 3 6.02006 -120555 -162071 -21496.9 7764.1 -32396.3 12295.6 -7.41834 
350 1 17.544 11.513 3 6.02601 -129200 -144085 -69176.6 -10497.3 1879.22 -22172.8 -7.41566 
351 1 18.198 10.255 3 6.02272 -176222 -134187 61337.1 14639.3 -14094.4 33541.6 -7.42301 
352 1 17.435 9.059 3 6.02069 -107953 -121764 -88430.4 6375.58 7933.51 -10889 -7.41425 
353 1 18.089 7.801 3 6.02647 -190011 -165267 74123.1 -648.307 8453.12 38544.1 -7.42375 
354 1 17.326 6.606 3 6.02601 -109736 -159156 -96662.4 -14343.4 4299.32 1754.47 -7.41385 
355 1 17.98 5.348 3 6.02272 -176770 -134637 60913.5 23302.5 26776.6 39334.7 -7.42291 
356 1 17.217 4.152 3 6.02203 -95704.6 -133340 -84892.2 5377.81 -7308.48 14086.3 -7.41456 
357 1 17.871 2.894 3 6.02667 -180138 -163466 26587.3 8068.63 34971.2 36313.7 -7.4212 
358 1 17.108 1.699 3 6.02185 -105078 -131544 -51904.6 -33177.6 -22009 24236.2 -7.41614 
359 1 17.762 0.44 3 6.02421 -160666 -123421 -17870.8 -3404.43 31204.9 30081.5 -7.41822 
702 2 10.134 11.513 6.4 6.02667 -137713 -165374 57196.6 8021.19 -27802 -26267.8 -7.42262 
703 2 10.897 10.318 6.4 6.02317 -167415 -110685 -87602.6 26896.8 3426.26 14175.4 -7.41421 
704 2 10.243 9.059 6.4 6.02185 -134967 -131954 83397.8 23102.9 -5091.14 -32243.1 -7.42382 
705 2 11.006 7.864 6.4 6.02667 -165737 -150737 -99999.8 9563.74 4523.8 4044.24 -7.41385 
706 2 10.352 6.606 6.4 6.02203 -131600 -136375 83151.9 -19052.9 17471.7 -34285.6 -7.42397 
707 2 11.115 5.41 6.4 6.02182 -148621 -129366 -95807.5 -9279.86 -3444.36 -6860.79 -7.41376 
708 2 10.461 4.152 6.4 6.02601 -134809 -168476 56806.7 -1217.21 32597.7 -32997.4 -7.42258 
709 2 11.224 2.957 6.4 6.02647 -159232 -165938 -69609.1 9432.51 -17003.8 -16442.5 -7.41533 
710 2 10.57 1.699 6.4 6.02069 -113267 -137656 13397.4 -25417 35901.5 -28590.2 -7.42017 
711 2 11.333 0.503 6.4 6.02406 -153096 -130221 -25632.3 -7918.83 -30018.5 -23248.5 -7.41789 
741 2 12.967 11.639 6.4 6.02624 -133862 -138784 -95835.8 5572.11 -4170.15 6493.25 -7.41347 
742 2 12.313 10.381 6.4 6.02181 -176786 -141659 97660.4 -17148 -23916.7 -14342.9 -7.42507 
743 2 13.076 9.185 6.4 6.02203 -112907 -114715 -108402 -14340.5 897.284 3015.14 -7.41281 
744 2 12.422 7.927 6.4 6.02667 -190785 -169957 112949 401.694 2023.54 -14734 -7.42629 
745 2 13.185 6.732 6.4 6.02185 -107790 -118736 -108440 23250.7 -3088.61 -737.871 -7.41268 
746 2 12.531 5.473 6.4 6.02317 -179539 -136912 97654.6 17410.9 24320.9 -13533.9 -7.42505 
747 2 13.294 4.278 6.4 6.02667 -113140 -159681 -87615.8 3784.48 -14071.2 -4185.7 -7.41418 
748 2 12.64 3.02 6.4 6.02272 -168530 -141018 57314.3 -22238.4 36622.9 -10895.2 -7.42279 
749 2 13.403 1.824 6.4 6.02303 -105476 -136759 -46625.8 -16127.3 -27362.6 -6197.51 -7.41625 
750 2 12.749 0.566 6.4 6.02652 -168385 -164116 3992.92 -7635.12 36443.8 -7593.83 -7.41958 
780 2 14.384 11.702 6.4 6.01899 -140114 -171023 83237.6 -16137.3 -38385.6 2113.76 -7.42476 
781 2 15.146 10.506 6.4 6.01899 -133564 -139946 -100311 -17154.9 1127.39 -5833.67 -7.41394 
782 2 14.493 9.248 6.4 6.02354 -156687 -202660 112865 4422.43 -13714.3 5589.51 -7.42646 
783 2 15.255 8.053 6.4 6.02354 -134241 -178987 -108320 -40.2959 2189.7 -2206.01 -7.41355 
784 2 14.602 6.795 6.4 6.01899 -146259 -171497 112841 -14199.1 11822.4 9240.71 -7.4264 
785 2 15.364 5.599 6.4 6.01899 -117080 -155490 -100166 -21573.1 -5746.77 1869.61 -7.41406 
786 2 14.711 4.341 6.4 6.02353 -151709 -199842 83210.6 5867.88 30486.8 11668.1 -7.42494 
787 2 15.473 3.146 6.4 6.01889 -120229 -157752 -71472.2 15986.9 -18730.1 6575.9 -7.41556 
788 2 14.82 1.887 6.4 6.01988 -134519 -165381 33864.4 25258.6 37439.6 12836.6 -7.42171 
789 2 15.582 0.692 6.4 6.02356 -131277 -189919 -26034.5 1522.24 -31453.5 11491.8 -7.41836 
819 2 17.217 11.828 6.4 6.02073 -176205 -107457 -71288.3 8859.72 3746.67 -19508.9 -7.41516 
820 2 16.563 10.569 6.4 6.02424 -134202 -134739 83497.8 15967.2 -25336.6 20495.7 -7.42359 
821 2 17.326 9.374 6.4 6.02654 -173357 -146113 -87414.7 -8785.8 10651.8 -10109.4 -7.41456 
822 2 16.672 8.116 6.4 6.02203 -132384 -138405 97623.5 -17075.5 -571.641 27883.6 -7.42481 
823 2 17.435 6.92 6.4 6.02182 -153698 -124277 -95895.8 -31281 7672.54 437.053 -7.41376 
824 2 16.781 5.662 6.4 6.02624 -140424 -169907 83188.9 5857.93 20968.4 32269.5 -7.42393 
825 2 17.544 4.467 6.4 6.02647 -160304 -160783 -86785.8 -13463.8 -3742.98 11103.9 -7.41434 
826 2 16.89 3.209 6.4 6.02199 -122256 -139047 45016.2 -10813.5 33010.2 33273.7 -7.42158 
827 2 17.653 2.013 6.4 6.02373 -152022 -132501 -59225.8 -32741.2 -18738.8 21344 -7.41599 
828 2 16.999 0.755 6.4 6.02705 -120320 -162246 -4482.54 7031.92 32661.6 30593.3 -7.41886 
389 1 20.377 11.387 3 6.02624 -185035 -156674 6980.86 -8494.12 -13062.6 34798 -7.41977 
390 1 19.614 10.192 3 6.02647 -175347 -154880 -48336.2 -13276.9 16918.3 -21034 -7.41654 
391 1 20.268 8.934 3 6.02181 -132010 -125531 27005.3 13958.6 5154.16 44073.3 -7.42052 
392 1 19.505 7.738 3 6.02272 -153573 -128207 -73602.3 4762.73 18786.6 -5594.96 -7.41514 
393 1 20.159 6.48 3 6.02667 -142928 -153970 26493.6 257.297 21939.4 48369.3 -7.42082 
394 1 19.396 5.285 3 6.02317 -150575 -127125 -85183 -34783 10180.5 10705.7 -7.41435 
395 1 20.05 4.026 3 6.02185 -129064 -122476 6479.29 -13096.9 31259.2 47831.1 -7.41932 
396 1 19.287 2.831 3 6.02667 -159003 -162158 -75343 -15772.2 -5403.31 25901.6 -7.41525 
397 1 19.941 1.573 3 6.02203 -116972 -128450 -25931.1 29802.5 29229 42802.2 -7.41757 
398 1 19.178 0.377 3 6.02336 -154533 -127101 -45730.7 3335.54 -21232.5 37775.9 -7.41638 
428 1 21.793 11.324 3 6.02127 -168563 -128406 3816.65 9179.53 24819.7 -27778 -7.41983 
429 1 22.447 10.066 3 6.02631 -147219 -160303 -25760.6 -21818.4 5147.98 37646.3 -7.41836 
430 1 21.685 8.871 3 6.01736 -128792 -158644 -34214.5 -36840.3 32817.3 -13440.1 -7.41749 
431 1 22.338 7.612 3 6.01889 -149098 -139937 -18143 -23702.5 19319.5 44624.3 -7.41865 
432 1 21.576 6.417 3 6.02353 -128690 -190912 -67005.3 -19991.3 28989.5 2842.66 -7.41614 
433 1 22.229 5.159 3 6.01899 -142696 -146076 -26380.5 19866.2 28573.6 47231.7 -7.41832 
434 1 21.467 3.963 3 6.01899 -114226 -162256 -82782.7 -1725.01 15024.5 19547.8 -7.41494 
435 1 22.12 2.705 3 6.02354 -145859 -181227 -47103 5209.25 27824.1 45406.4 -7.41706 
436 1 21.358 1.51 3 6.02354 -126775 -193711 -77238.6 -20456.7 -4119.41 34469.1 -7.41522 
437 1 22.011 0.252 3 6.01857 -132015 -177964 -70174.1 15665.2 15424.5 39093.3 -7.41608 
467 1 24.627 11.198 3 6.02317 -176517 -105163 -69967.3 -24706.9 5780.55 22923 -7.41522 
468 1 23.864 10.003 3 6.02631 -126199 -166029 13303.9 -12857.8 42675.9 -16812.9 -7.42026 
469 1 24.518 8.745 3 6.02272 -177901 -106864 -58598.9 16471.1 17772.4 29687.2 -7.41601 
470 1 23.755 7.549 3 6.02199 -107746 -136792 -34158.3 5776.83 45146.3 -4696.95 -7.41695 
471 1 24.409 6.291 3 6.02647 -188152 -138939 -59639.6 426.357 27028.3 33932.6 -7.41591 
472 1 23.646 5.096 3 6.02624 -111978 -165621 -72099.1 -15457.7 35154 9203.66 -7.41484 
473 1 24.3 3.838 3 6.02181 -171806 -111863 -71682.2 23955.7 28146.1 35462.5 -7.41515 
474 1 23.537 2.642 3 6.02203 -100840 -130325 -91207.7 3721.95 16099 23346.3 -7.41379 
475 1 24.191 1.384 3 6.02652 -172270 -147959 -87871.3 8500.69 17126.5 33322.8 -7.41446 
476 1 23.428 0.189 3 6.02584 -116111 -148217 -88242.9 -19060.6 -5810.93 35023.8 -7.41403 
499 1 26.043 11.135 3 6.02272 -169341 -141095 56910.9 15657.1 44858.3 -11691.4 -7.42267 
500 1 26.697 9.877 3 6.02732 -151037 -134578 -83407.2 -4784.15 14683 9469.07 -7.41459 
501 1 25.934 8.682 3 6.02647 -170065 -170949 3516.25 -5151.14 54322.7 -6691.74 -7.4196 
502 1 26.588 7.424 3 6.02104 -142258 -102552 -79957.6 15730.2 24750.6 12131.7 -7.41472 
503 1 25.825 6.228 3 6.02272 -151230 -136513 -48033.3 13298.9 50549 285.11 -7.41663 
504 1 26.479 4.97 3 6.02731 -149427 -133614 -87364.7 -1761.84 28917 14267.7 -7.41463 
505 1 25.716 3.775 3 6.02317 -152745 -127568 -86471.4 -24040.4 34919 8720.34 -7.41404 
506 1 26.37 2.516 3 6.02083 -134260 -106905 -100487 -13098.6 21711.7 14958.5 -7.41356 
507 1 25.607 1.321 3 6.02667 -159747 -154621 -104351 -5885.76 11348 17219.5 -7.41376 
508 1 26.261 0.063 3 6.02786 -126586 -145543 -108585 6610.29 1759.12 14131.2 -7.41316 
858 2 18.633 11.89 6.4 6.02073 -177727 -128135 33949.2 6722.64 -29901 25919.2 -7.42127 
859 2 19.396 10.695 6.4 6.02662 -124683 -152613 -46758.6 -9186.36 18940.7 -20641.3 -7.41706 
860 2 18.742 9.437 6.4 6.02667 -186696 -162159 57174.4 -3891.68 -8877.94 37212.1 -7.42309 
861 2 19.505 8.242 6.4 6.02033 -111601 -121906 -69719.2 1803.34 22776.3 -6556.2 -7.41531 
862 2 18.851 6.983 6.4 6.02317 -183078 -127465 56825.2 19682.1 12223.2 44724.6 -7.4224 
863 2 19.614 5.788 6.4 6.02601 -113732 -157246 -83566.4 -13000.7 15490.7 8008.72 -7.41463 
864 2 18.96 4.53 6.4 6.02272 -172849 -132036 33445.3 -12019.5 26618.3 47268.5 -7.4214 
865 2 19.723 3.334 6.4 6.02199 -103576 -130484 -80018.4 -34639.8 494.153 21852.3 -7.4143 
866 2 19.069 2.076 6.4 6.0265 -174746 -164157 -5000.01 11300.6 29875 44926.9 -7.41912 
867 2 19.832 0.881 6.4 6.02584 -116848 -153396 -58492.8 -9503.83 -16669.2 33847.1 -7.41573 
898 2 20.813 10.758 6.4 6.02601 -136013 -152723 3816.68 -2775.18 -11628.7 35410.7 -7.41989 
899 2 21.576 9.563 6.4 6.02317 -168147 -125145 -25752 4502.92 35202.8 -14335.9 -7.41753 
900 2 20.922 8.304 6.4 6.02033 -132305 -118853 13585.7 16410.2 6847.95 45358.1 -7.42016 
901 2 21.685 7.109 6.4 6.02397 -163039 -159279 -58651.7 -17215.2 34629.4 655.562 -7.41653 
902 2 21.031 5.851 6.4 6.02662 -144055 -168834 3366.91 20256.6 21426.6 50336.4 -7.4202 
903 2 21.793 4.656 6.4 6.01732 -121876 -157126 -80017.4 849.356 22991.6 15329 -7.41488 
904 2 21.14 3.397 6.4 6.02127 -140648 -150249 -22041.1 31393.9 26913.7 50258.5 -7.4182 
905 2 21.902 2.202 6.4 6.02353 -128786 -188128 -83886.1 -12661.2 4146.39 28661.4 -7.41509 
906 2 21.249 0.944 6.4 6.02056 -132392 -181338 -53209.3 12179.1 20481.5 45052.4 -7.41705 
937 2 23.646 10.884 6.4 6.02624 -180650 -164981 26833.1 -7763.65 40721.1 -17605.9 -7.42095 
938 2 22.992 9.626 6.4 6.02181 -179270 -111990 -34324.2 -20723.7 4769.29 35101.7 -7.41729 
939 2 23.755 8.43 6.4 6.02181 -160244 -133509 -17797 -30650.4 48250.1 -5599.59 -7.41838 
940 2 23.101 7.172 6.4 6.02631 -190804 -139724 -34209.7 3291.92 18519 41364.3 -7.41763 
941 2 23.864 5.977 6.4 6.02317 -157220 -128621 -59401.3 4572.54 42965.2 6463.02 -7.41558 
942 2 23.21 4.718 6.4 6.02033 -131320 -110710 -47838.7 22935.7 25579.3 43640.6 -7.41616 
943 2 23.973 3.523 6.4 6.02667 -157816 -160249 -87246.7 -15475.8 26778 17941.6 -7.4147 
944 2 23.319 2.265 6.4 6.02697 -125834 -149785 -70006.5 10768.1 21613 41701.4 -7.41534 
945 2 24.082 1.07 6.4 6.01971 -158474 -112619 -96223.7 3393.89 4124.63 27306.5 -7.41349 
976 2 25.062 10.947 6.4 6.02128 -174668 -105330 -74083.3 -21019.5 4577.3 18994.8 -7.41532 
977 2 25.825 9.751 6.4 6.02106 -114351 -140731 26471.1 -22186.7 52861.3 -5248.54 -7.4208 
978 2 25.171 8.493 6.4 6.02647 -189121 -136017 -67055.6 1662.91 16952.4 23738.1 -7.41548 
979 2 25.934 7.298 6.4 6.02631 -115878 -169623 -26310 -4049.15 55139.8 1087.3 -7.41779 
980 2 25.28 6.04 6.4 6.02272 -176893 -105993 -72290.4 -15136.8 25494.6 25830.9 -7.41512 
981 2 26.043 4.844 6.4 6.02203 -99559.6 -133869 -71682.2 -24261.1 44786.9 6696.47 -7.4152 
982 2 25.389 3.586 6.4 6.02654 -180877 -138722 -86562.3 6003.94 25004.1 25891.4 -7.41463 
983 2 26.152 2.391 6.4 6.02424 -104752 -122886 -100460 12716 23877 11235.3 -7.41322 
984 2 25.498 1.132 6.4 6.02226 -163034 -105870 -101353 17405 11762.2 23221.8 -7.41339 
1013 2 27.242 9.814 6.4 6.02373 -135302 -107588 -85258.9 22296.5 14349.8 3460.33 -7.41426 
1014 2 27.351 7.361 6.4 6.0217 -132283 -109865 -82965.9 -14397.6 24435.2 3154.79 -7.41478 
1015 2 27.46 4.907 6.4 6.02469 -139094 -144199 -91152.1 5243.97 28277.4 2228.73 -7.41428 
1016 2 27.569 2.454 6.4 6.01957 -119873 -119862 -104397 -14805.7 20547.3 1221.99 -7.4134 
28 1 1.743 23.278 3 6.01825 -123029 -168489 -26156.9 20973 31474.3 11568.5 -7.41798 
29 1 0.981 22.082 3 6.02219 -138058 -155925 33847.1 1639.06 -37437.8 12865.6 -7.42163 
30 1 1.635 20.824 3 6.02384 -161651 -159571 -71293.2 6635.36 18773.7 6495.07 -7.41568 
31 1 0.872 19.629 3 6.02192 -139680 -137972 83357.2 -21958.2 -30503.8 11626.2 -7.42424 
32 1 1.526 18.37 3 6.02316 -153416 -121723 -100273 -12429.5 5704.18 1929.44 -7.41349 
33 1 0.763 17.175 3 6.02756 -153664 -171151 112865 -2455.55 -11800.2 9152.1 -7.42632 
34 1 1.417 15.917 3 6.02272 -156260 -118073 -108327 23953.3 -2188.7 -2259.4 -7.41318 
35 1 0.654 14.721 3 6.02104 -142590 -142827 112945 17625.9 13747.9 5676.88 -7.42602 
36 1 1.308 13.463 3 6.02647 -176989 -141611 -100074 1888.36 -1261.62 -5854.9 -7.41359 
37 1 0.545 12.268 3 6.02732 -147362 -173776 82991.3 -1029.73 38438.9 2022.4 -7.42433 
68 1 3.16 23.215 3 6.02185 -115122 -133713 -4589.02 -29410.4 -32693.1 30632.6 -7.41865 
69 1 3.814 21.956 3 6.02317 -155780 -127983 -59215.1 -6469.53 18679.9 21330.7 -7.41582 
70 1 3.051 20.761 3 6.02667 -181247 -166080 45143.2 -6436.94 -33008.9 33186.3 -7.42229 
71 1 3.705 19.503 3 6.02181 -150559 -128147 -87031 33115.4 3781.83 11177.5 -7.41437 
72 1 2.942 18.307 3 6.02181 -178030 -137667 83112.8 15558.2 -20937.6 32346.8 -7.42421 
73 1 3.596 17.049 3 6.02624 -165272 -154093 -95648.9 11792.2 -7649.08 373.637 -7.41385 
74 1 2.833 15.854 3 6.02647 -190862 -169084 97705.3 -1670.39 579.827 27798.6 -7.42514 
75 1 3.487 14.596 3 6.02181 -115011 -117470 -87726.5 26238.9 -10683.6 -10054.8 -7.41398 
76 1 2.724 13.4 3 6.02181 -176232 -138501 83330.4 22347.5 25395.7 20545 -7.42432 
77 1 3.378 12.142 3 6.02624 -135412 -142902 -71330.2 2462.05 -3690.47 -19536.9 -7.41487 
107 1 5.993 23.089 3 6.02541 -103133 -131350 -58626.2 32955.9 16708 33842.1 -7.41607 
108 1 5.23 21.893 3 6.02272 -164078 -133623 -5156.46 8055.17 -29864.2 44958.3 -7.41901 
109 1 5.884 20.635 3 6.02601 -109290 -162591 -79836.1 14954.5 -508.552 21849.5 -7.41481 
110 1 5.121 19.44 3 6.02647 -183825 -163432 33378.4 -7697.18 -26625.6 47259 -7.42136 
111 1 5.775 18.182 3 6.02069 -99647.5 -129301 -83585.6 34082.1 -15507.6 8005.05 -7.41463 
112 1 5.012 16.986 3 6.02128 -178380 -129376 56842 16288.1 -12231 44725.5 -7.42298 
113 1 5.666 15.728 3 6.02601 -128416 -171673 -69922.6 -2319.01 -22768.8 -6498.61 -7.41557 
114 1 4.904 14.533 3 6.02201 -156412 -193881 57221.1 -2856.79 8775.04 37222.9 -7.42293 
115 1 5.557 13.275 3 6.01899 -135459 -150081 -46651.5 24682.7 -18885 -20642 -7.41701 
116 1 4.795 12.079 3 6.01899 -140029 -161208 34126 22158.4 29762.9 25993.1 -7.42183 
146 1 7.41 23.026 3 6.02601 -119325 -158305 -53129.3 -15931.4 -20477.8 45131 -7.41646 
147 1 8.064 21.768 3 6.02272 -151029 -128224 -83570.2 36349.8 -4116.47 28753.6 -7.41459 
148 1 7.301 20.572 3 6.02068 -117188 -126024 -21843.5 6835.93 -26878.1 50334.1 -7.41821 
149 1 7.955 19.314 3 6.02647 -160669 -161502 -80192.7 17198.7 -22867.3 15428 -7.41473 
150 1 7.192 18.119 3 6.02601 -135736 -154994 3430.6 -8417.36 -21419.6 50378.2 -7.41965 
151 1 7.846 16.861 3 6.02272 -155065 -130631 -58537.5 34947.5 -34580.5 646.102 -7.4159 
152 1 7.083 15.665 3 6.02203 -129789 -122131 13376.3 15053.8 -6813.59 45355.8 -7.42005 
153 1 7.737 14.407 3 6.02667 -175028 -157553 -25736.8 12264 -35187.9 -14340.6 -7.41811 
154 1 6.974 13.212 3 6.02185 -132301 -118611 4126.75 -15708.1 11684.9 35376.3 -7.41915 
192 1 9.153 14.344 3 6.02667 -189119 -141474 -34348.9 1562 -4794.06 35104.3 -7.41761 
509 2 0 15.98 6.4 6.02329 -141575 -147929 118294 19853.3 -13.249 83.4648 -7.42571 
510 2 0.109 13.526 6.4 6.02781 -142418 -182060 102602 1148.03 26309.3 2377.83 -7.42553 
536 2 1.09 23.403 6.4 6.01932 -140142 -162942 -21443.8 25516.9 32419.5 12289.9 -7.41843 
537 2 1.852 22.208 6.4 6.02265 -143063 -197040 26798 -903.474 -37681.7 16240.4 -7.4216 
538 2 1.199 20.95 6.4 6.01936 -131129 -162881 -69125.6 -11778.6 20100.1 9329.52 -7.41581 
539 2 1.961 19.754 6.4 6.01825 -141012 -169219 74025.4 -18245.6 -32429 19834.8 -7.4241 
540 2 1.308 18.496 6.4 6.02354 -141903 -187660 -99482.1 8750.38 7168.29 4016.75 -7.41404 
541 2 2.07 17.301 6.4 6.02265 -156901 -200508 102457 3865.66 -15260.2 21617.2 -7.42584 
542 2 1.417 16.043 6.4 6.01936 -123831 -148826 -108432 -9804.51 -770.606 -2167.64 -7.41336 
543 2 2.179 14.847 6.4 6.01899 -145700 -169158 102733 -13657 9219.81 21142.3 -7.42591 
544 2 1.526 13.589 6.4 6.02353 -144823 -169376 -99665.2 9209.9 0.77858 -8251.74 -7.41416 
545 2 2.288 12.394 6.4 6.02082 -144874 -165457 74197.8 24985.1 33322.5 18191.8 -7.42383 
575 2 3.923 23.529 6.4 6.02272 -159072 -134709 -17867 -30700.2 -31226.9 30054 -7.41837 
576 2 3.269 22.271 6.4 6.02667 -115301 -164795 -51736.1 12640.7 21986.7 24169.3 -7.41624 
577 2 4.032 21.076 6.4 6.02317 -171831 -130406 26464.4 10625.9 -34974.1 36401.6 -7.42085 
578 2 3.378 19.817 6.4 6.02185 -103668 -127842 -84817.6 32567.6 7370.29 14130.8 -7.41401 
579 2 4.141 18.622 6.4 6.02667 -187796 -162876 60911.4 -4090.04 -26750.7 39333.9 -7.42323 
580 2 3.487 17.364 6.4 6.02203 -103436 -126718 -96675.8 -5593.84 -4359.57 1715.27 -7.41347 
581 2 4.25 16.168 6.4 6.02181 -179659 -134269 74163 -18806.1 -8439.73 38558.6 -7.42368 
582 2 3.596 14.91 6.4 6.02624 -122963 -151662 -88360.1 12821.9 -7923.04 -10805.3 -7.4139 
583 2 4.359 13.715 6.4 6.02647 -187183 -165531 61424.1 5067.9 14092.6 33535.4 -7.42298 
584 2 3.705 12.457 6.4 6.02199 -122783 -114745 -69135.5 -8950.98 -2026.4 -22150.3 -7.41493 
614 2 5.339 23.592 6.4 6.02647 -164615 -165390 -45667.4 14196.6 21261.4 37767.6 -7.41672 
615 2 6.102 22.397 6.4 6.02601 -122956 -161399 -25916.4 -9775.81 -29172.1 42804.3 -7.41793 
616 2 5.448 21.139 6.4 6.02272 -147954 -133893 -75429.8 -3435.85 5326.06 25919 -7.41493 
617 2 6.211 19.943 6.4 6.02203 -123570 -127267 6365.99 -23277 -31258.5 47826.2 -7.41966 
618 2 5.557 18.685 6.4 6.02667 -158900 -160168 -85132.6 16087.2 -10143.7 10723.4 -7.41468 
619 2 6.32 17.49 6.4 6.02185 -134580 -120898 26483 18449 -21915.1 48388.8 -7.42049 
620 2 5.666 16.231 6.4 6.02317 -156873 -123782 -73860.8 33419 -18798 -5578.65 -7.41499 
621 2 6.429 15.036 6.4 6.02667 -143103 -153801 26877.7 5257.33 -5136.76 44060.6 -7.42082 
622 2 5.775 13.778 6.4 6.02272 -163623 -124160 -48426.6 -7491.18 -16955.9 -21014.3 -7.41658 
623 2 6.538 12.582 6.4 6.02199 -126708 -126932 7209.53 -9000.11 13074.9 34819.3 -7.41935 
653 2 8.173 23.718 6.4 6.02654 -169643 -153462 -70094.9 -14030.3 -15361.4 39188.7 -7.41556 
654 2 7.519 22.46 6.4 6.02203 -98284.6 -132148 -77133.3 -1167.7 4165.15 34534.1 -7.41501 
655 2 8.282 21.264 6.4 6.02128 -168258 -119214 -46841 -28589.2 -27713.9 45513.7 -7.4168 
656 2 7.628 20.006 6.4 6.02601 -116785 -179630 -83038.1 33124 -14922.4 19579.8 -7.41483 
657 2 8.39 18.811 6.4 6.02201 -153540 -179574 -26517.9 382.237 -28510.4 47257.2 -7.41803 
658 2 7.737 17.553 6.4 6.01899 -117624 -162494 -67007.1 742.743 -28992.5 2856.52 -7.41583 
659 2 8.499 16.357 6.4 6.01899 -145768 -144380 -17921 -14549.9 -19336.4 44661.4 -7.4188 
660 2 7.846 15.099 6.4 6.02353 -137278 -189835 -34403.9 17621.2 -32854.7 -13415.9 -7.41803 