(written by TR)

1016	atoms
2	atom types
0	27.6777143	xlo xhi
0	47.9392075	ylo yhi
0	15.0	zlo zhi


Masses

1	12
2	12

Atoms

1 1 1 0 0.654 46.681 3.000 0 0 0
2 1 1 0 0.545 44.227 3.000 0 0 0
3 1 1 0 0.436 41.774 3.000 0 0 0
4 1 1 0 0.327 39.320 3.000 0 0 0
5 1 1 0 0.218 36.867 3.000 0 0 0
6 1 1 0 0.109 34.413 3.000 0 0 0
7 1 1 0 0.000 31.959 3.000 0 0 0
8 1 1 0 2.833 47.813 3.000 0 0 0
9 1 1 0 2.070 46.618 3.000 0 0 0
10 1 1 0 2.724 45.360 3.000 0 0 0
11 1 1 0 1.961 44.164 3.000 0 0 0
12 1 1 0 2.615 42.906 3.000 0 0 0
13 1 1 0 1.852 41.711 3.000 0 0 0
14 1 1 0 2.506 40.453 3.000 0 0 0
15 1 1 0 1.743 39.257 3.000 0 0 0
16 1 1 0 2.397 37.999 3.000 0 0 0
17 1 1 0 1.635 36.804 3.000 0 0 0
18 1 1 0 2.288 35.545 3.000 0 0 0
19 1 1 0 1.526 34.350 3.000 0 0 0
20 1 1 0 2.179 33.092 3.000 0 0 0
21 1 1 0 1.417 31.897 3.000 0 0 0
22 1 1 0 2.070 30.638 3.000 0 0 0
23 1 1 0 1.308 29.443 3.000 0 0 0
24 1 1 0 1.961 28.185 3.000 0 0 0
25 1 1 0 1.199 26.989 3.000 0 0 0
26 1 1 0 1.852 25.731 3.000 0 0 0
27 1 1 0 1.090 24.536 3.000 0 0 0
28 1 1 0 1.743 23.278 3.000 0 0 0
29 1 1 0 0.981 22.082 3.000 0 0 0
30 1 1 0 1.635 20.824 3.000 0 0 0
31 1 1 0 0.872 19.629 3.000 0 0 0
32 1 1 0 1.526 18.370 3.000 0 0 0
33 1 1 0 0.763 17.175 3.000 0 0 0
34 1 1 0 1.417 15.917 3.000 0 0 0
35 1 1 0 0.654 14.721 3.000 0 0 0
36 1 1 0 1.308 13.463 3.000 0 0 0
37 1 1 0 0.545 12.268 3.000 0 0 0
38 1 1 0 1.199 11.010 3.000 0 0 0
39 1 1 0 0.436 9.814 3.000 0 0 0
40 1 1 0 1.090 8.556 3.000 0 0 0
41 1 1 0 0.327 7.361 3.000 0 0 0
42 1 1 0 0.981 6.102 3.000 0 0 0
43 1 1 0 0.218 4.907 3.000 0 0 0
44 1 1 0 0.872 3.649 3.000 0 0 0
45 1 1 0 0.109 2.454 3.000 0 0 0
46 1 1 0 0.763 1.195 3.000 0 0 0
47 1 1 0 0.000 0.000 3.000 0 0 0
48 1 1 0 4.250 47.750 3.000 0 0 0
49 1 1 0 4.904 46.492 3.000 0 0 0
50 1 1 0 4.141 45.297 3.000 0 0 0
51 1 1 0 4.795 44.039 3.000 0 0 0
52 1 1 0 4.032 42.843 3.000 0 0 0
53 1 1 0 4.686 41.585 3.000 0 0 0
54 1 1 0 3.923 40.390 3.000 0 0 0
55 1 1 0 4.577 39.131 3.000 0 0 0
56 1 1 0 3.814 37.936 3.000 0 0 0
57 1 1 0 4.468 36.678 3.000 0 0 0
58 1 1 0 3.705 35.483 3.000 0 0 0
59 1 1 0 4.359 34.224 3.000 0 0 0
60 1 1 0 3.596 33.029 3.000 0 0 0
61 1 1 0 4.250 31.771 3.000 0 0 0
62 1 1 0 3.487 30.575 3.000 0 0 0
63 1 1 0 4.141 29.317 3.000 0 0 0
64 1 1 0 3.378 28.122 3.000 0 0 0
65 1 1 0 4.032 26.864 3.000 0 0 0
66 1 1 0 3.269 25.668 3.000 0 0 0
67 1 1 0 3.923 24.410 3.000 0 0 0
68 1 1 0 3.160 23.215 3.000 0 0 0
69 1 1 0 3.814 21.956 3.000 0 0 0
70 1 1 0 3.051 20.761 3.000 0 0 0
71 1 1 0 3.705 19.503 3.000 0 0 0
72 1 1 0 2.942 18.307 3.000 0 0 0
73 1 1 0 3.596 17.049 3.000 0 0 0
74 1 1 0 2.833 15.854 3.000 0 0 0
75 1 1 0 3.487 14.596 3.000 0 0 0
76 1 1 0 2.724 13.400 3.000 0 0 0
77 1 1 0 3.378 12.142 3.000 0 0 0
78 1 1 0 2.615 10.947 3.000 0 0 0
79 1 1 0 3.269 9.689 3.000 0 0 0
80 1 1 0 2.506 8.493 3.000 0 0 0
81 1 1 0 3.160 7.235 3.000 0 0 0
82 1 1 0 2.397 6.040 3.000 0 0 0
83 1 1 0 3.051 4.781 3.000 0 0 0
84 1 1 0 2.288 3.586 3.000 0 0 0
85 1 1 0 2.942 2.328 3.000 0 0 0
86 1 1 0 2.179 1.132 3.000 0 0 0
87 1 1 0 7.083 47.625 3.000 0 0 0
88 1 1 0 6.320 46.429 3.000 0 0 0
89 1 1 0 6.974 45.171 3.000 0 0 0
90 1 1 0 6.211 43.976 3.000 0 0 0
91 1 1 0 6.865 42.717 3.000 0 0 0
92 1 1 0 6.102 41.522 3.000 0 0 0
93 1 1 0 6.756 40.264 3.000 0 0 0
94 1 1 0 5.993 39.069 3.000 0 0 0
95 1 1 0 6.647 37.810 3.000 0 0 0
96 1 1 0 5.884 36.615 3.000 0 0 0
97 1 1 0 6.538 35.357 3.000 0 0 0
98 1 1 0 5.775 34.161 3.000 0 0 0
99 1 1 0 6.429 32.903 3.000 0 0 0
100 1 1 0 5.666 31.708 3.000 0 0 0
101 1 1 0 6.320 30.450 3.000 0 0 0
102 1 1 0 5.557 29.254 3.000 0 0 0
103 1 1 0 6.211 27.996 3.000 0 0 0
104 1 1 0 5.448 26.801 3.000 0 0 0
105 1 1 0 6.102 25.542 3.000 0 0 0
106 1 1 0 5.339 24.347 3.000 0 0 0
107 1 1 0 5.993 23.089 3.000 0 0 0
108 1 1 0 5.230 21.893 3.000 0 0 0
109 1 1 0 5.884 20.635 3.000 0 0 0
110 1 1 0 5.121 19.440 3.000 0 0 0
111 1 1 0 5.775 18.182 3.000 0 0 0
112 1 1 0 5.012 16.986 3.000 0 0 0
113 1 1 0 5.666 15.728 3.000 0 0 0
114 1 1 0 4.904 14.533 3.000 0 0 0
115 1 1 0 5.557 13.275 3.000 0 0 0
116 1 1 0 4.795 12.079 3.000 0 0 0
117 1 1 0 5.448 10.821 3.000 0 0 0
118 1 1 0 4.686 9.626 3.000 0 0 0
119 1 1 0 5.339 8.367 3.000 0 0 0
120 1 1 0 4.577 7.172 3.000 0 0 0
121 1 1 0 5.230 5.914 3.000 0 0 0
122 1 1 0 4.468 4.718 3.000 0 0 0
123 1 1 0 5.121 3.460 3.000 0 0 0
124 1 1 0 4.359 2.265 3.000 0 0 0
125 1 1 0 5.012 1.007 3.000 0 0 0
126 1 1 0 8.499 47.562 3.000 0 0 0
127 1 1 0 9.153 46.303 3.000 0 0 0
128 1 1 0 8.390 45.108 3.000 0 0 0
129 1 1 0 9.044 43.850 3.000 0 0 0
130 1 1 0 8.282 42.655 3.000 0 0 0
131 1 1 0 8.935 41.396 3.000 0 0 0
132 1 1 0 8.173 40.201 3.000 0 0 0
133 1 1 0 8.826 38.943 3.000 0 0 0
134 1 1 0 8.064 37.747 3.000 0 0 0
135 1 1 0 8.717 36.489 3.000 0 0 0
136 1 1 0 7.955 35.294 3.000 0 0 0
137 1 1 0 8.608 34.036 3.000 0 0 0
138 1 1 0 7.846 32.840 3.000 0 0 0
139 1 1 0 8.499 31.582 3.000 0 0 0
140 1 1 0 7.737 30.387 3.000 0 0 0
141 1 1 0 8.390 29.128 3.000 0 0 0
142 1 1 0 7.628 27.933 3.000 0 0 0
143 1 1 0 8.282 26.675 3.000 0 0 0
144 1 1 0 7.519 25.480 3.000 0 0 0
145 1 1 0 8.173 24.221 3.000 0 0 0
146 1 1 0 7.410 23.026 3.000 0 0 0
147 1 1 0 8.064 21.768 3.000 0 0 0
148 1 1 0 7.301 20.572 3.000 0 0 0
149 1 1 0 7.955 19.314 3.000 0 0 0
150 1 1 0 7.192 18.119 3.000 0 0 0
151 1 1 0 7.846 16.861 3.000 0 0 0
152 1 1 0 7.083 15.665 3.000 0 0 0
153 1 1 0 7.737 14.407 3.000 0 0 0
154 1 1 0 6.974 13.212 3.000 0 0 0
155 1 1 0 7.628 11.953 3.000 0 0 0
156 1 1 0 6.865 10.758 3.000 0 0 0
157 1 1 0 7.519 9.500 3.000 0 0 0
158 1 1 0 6.756 8.304 3.000 0 0 0
159 1 1 0 7.410 7.046 3.000 0 0 0
160 1 1 0 6.647 5.851 3.000 0 0 0
161 1 1 0 7.301 4.593 3.000 0 0 0
162 1 1 0 6.538 3.397 3.000 0 0 0
163 1 1 0 7.192 2.139 3.000 0 0 0
164 1 1 0 6.429 0.944 3.000 0 0 0
165 1 1 0 11.333 47.436 3.000 0 0 0
166 1 1 0 10.570 46.241 3.000 0 0 0
167 1 1 0 11.224 44.982 3.000 0 0 0
168 1 1 0 10.461 43.787 3.000 0 0 0
169 1 1 0 11.115 42.529 3.000 0 0 0
170 1 1 0 10.352 41.333 3.000 0 0 0
171 1 1 0 11.006 40.075 3.000 0 0 0
172 1 1 0 10.243 38.880 3.000 0 0 0
173 1 1 0 10.897 37.622 3.000 0 0 0
174 1 1 0 10.134 36.426 3.000 0 0 0
175 1 1 0 10.788 35.168 3.000 0 0 0
176 1 1 0 10.025 33.973 3.000 0 0 0
177 1 1 0 10.679 32.714 3.000 0 0 0
178 1 1 0 9.916 31.519 3.000 0 0 0
179 1 1 0 10.570 30.261 3.000 0 0 0
180 1 1 0 9.807 29.066 3.000 0 0 0
181 1 1 0 10.461 27.807 3.000 0 0 0
182 1 1 0 9.698 26.612 3.000 0 0 0
183 1 1 0 10.352 25.354 3.000 0 0 0
184 1 1 0 9.589 24.158 3.000 0 0 0
185 1 1 0 10.243 22.900 3.000 0 0 0
186 1 1 0 9.480 21.705 3.000 0 0 0
187 1 1 0 10.134 20.447 3.000 0 0 0
188 1 1 0 9.371 19.251 3.000 0 0 0
189 1 1 0 10.025 17.993 3.000 0 0 0
190 1 1 0 9.262 16.798 3.000 0 0 0
191 1 1 0 9.916 15.539 3.000 0 0 0
192 1 1 0 9.153 14.344 3.000 0 0 0
193 1 1 0 9.807 13.086 3.000 0 0 0
194 1 1 0 9.044 11.890 3.000 0 0 0
195 1 1 0 9.698 10.632 3.000 0 0 0
196 1 1 0 8.935 9.437 3.000 0 0 0
197 1 1 0 9.589 8.179 3.000 0 0 0
198 1 1 0 8.826 6.983 3.000 0 0 0
199 1 1 0 9.480 5.725 3.000 0 0 0
200 1 1 0 8.717 4.530 3.000 0 0 0
201 1 1 0 9.371 3.271 3.000 0 0 0
202 1 1 0 8.608 2.076 3.000 0 0 0
203 1 1 0 9.262 0.818 3.000 0 0 0
204 1 1 0 12.749 47.373 3.000 0 0 0
205 1 1 0 13.403 46.115 3.000 0 0 0
206 1 1 0 12.640 44.919 3.000 0 0 0
207 1 1 0 13.294 43.661 3.000 0 0 0
208 1 1 0 12.531 42.466 3.000 0 0 0
209 1 1 0 13.185 41.208 3.000 0 0 0
210 1 1 0 12.422 40.012 3.000 0 0 0
211 1 1 0 13.076 38.754 3.000 0 0 0
212 1 1 0 12.313 37.559 3.000 0 0 0
213 1 1 0 12.967 36.300 3.000 0 0 0
214 1 1 0 12.204 35.105 3.000 0 0 0
215 1 1 0 12.858 33.847 3.000 0 0 0
216 1 1 0 12.095 32.652 3.000 0 0 0
217 1 1 0 12.749 31.393 3.000 0 0 0
218 1 1 0 11.986 30.198 3.000 0 0 0
219 1 1 0 12.640 28.940 3.000 0 0 0
220 1 1 0 11.877 27.744 3.000 0 0 0
221 1 1 0 12.531 26.486 3.000 0 0 0
222 1 1 0 11.768 25.291 3.000 0 0 0
223 1 1 0 12.422 24.033 3.000 0 0 0
224 1 1 0 11.660 22.837 3.000 0 0 0
225 1 1 0 12.313 21.579 3.000 0 0 0
226 1 1 0 11.551 20.384 3.000 0 0 0
227 1 1 0 12.204 19.125 3.000 0 0 0
228 1 1 0 11.442 17.930 3.000 0 0 0
229 1 1 0 12.095 16.672 3.000 0 0 0
230 1 1 0 11.333 15.476 3.000 0 0 0
231 1 1 0 11.986 14.218 3.000 0 0 0
232 1 1 0 11.224 13.023 3.000 0 0 0
233 1 1 0 11.877 11.765 3.000 0 0 0
234 1 1 0 11.115 10.569 3.000 0 0 0
235 1 1 0 11.768 9.311 3.000 0 0 0
236 1 1 0 11.006 8.116 3.000 0 0 0
237 1 1 0 11.660 6.857 3.000 0 0 0
238 1 1 0 10.897 5.662 3.000 0 0 0
239 1 1 0 11.551 4.404 3.000 0 0 0
240 1 1 0 10.788 3.209 3.000 0 0 0
241 1 1 0 11.442 1.950 3.000 0 0 0
242 1 1 0 10.679 0.755 3.000 0 0 0
243 1 1 0 15.582 47.247 3.000 0 0 0
244 1 1 0 14.820 46.052 3.000 0 0 0
245 1 1 0 15.473 44.794 3.000 0 0 0
246 1 1 0 14.711 43.598 3.000 0 0 0
247 1 1 0 15.364 42.340 3.000 0 0 0
248 1 1 0 14.602 41.145 3.000 0 0 0
249 1 1 0 15.255 39.886 3.000 0 0 0
250 1 1 0 14.493 38.691 3.000 0 0 0
251 1 1 0 15.146 37.433 3.000 0 0 0
252 1 1 0 14.384 36.238 3.000 0 0 0
253 1 1 0 15.037 34.979 3.000 0 0 0
254 1 1 0 14.275 33.784 3.000 0 0 0
255 1 1 0 14.929 32.526 3.000 0 0 0
256 1 1 0 14.166 31.330 3.000 0 0 0
257 1 1 0 14.820 30.072 3.000 0 0 0
258 1 1 0 14.057 28.877 3.000 0 0 0
259 1 1 0 14.711 27.619 3.000 0 0 0
260 1 1 0 13.948 26.423 3.000 0 0 0
261 1 1 0 14.602 25.165 3.000 0 0 0
262 1 1 0 13.839 23.970 3.000 0 0 0
263 1 1 0 14.493 22.711 3.000 0 0 0
264 1 1 0 13.730 21.516 3.000 0 0 0
265 1 1 0 14.384 20.258 3.000 0 0 0
266 1 1 0 13.621 19.062 3.000 0 0 0
267 1 1 0 14.275 17.804 3.000 0 0 0
268 1 1 0 13.512 16.609 3.000 0 0 0
269 1 1 0 14.166 15.351 3.000 0 0 0
270 1 1 0 13.403 14.155 3.000 0 0 0
271 1 1 0 14.057 12.897 3.000 0 0 0
272 1 1 0 13.294 11.702 3.000 0 0 0
273 1 1 0 13.948 10.443 3.000 0 0 0
274 1 1 0 13.185 9.248 3.000 0 0 0
275 1 1 0 13.839 7.990 3.000 0 0 0
276 1 1 0 13.076 6.795 3.000 0 0 0
277 1 1 0 13.730 5.536 3.000 0 0 0
278 1 1 0 12.967 4.341 3.000 0 0 0
279 1 1 0 13.621 3.083 3.000 0 0 0
280 1 1 0 12.858 1.887 3.000 0 0 0
281 1 1 0 13.512 0.629 3.000 0 0 0
282 1 1 0 16.999 47.184 3.000 0 0 0
283 1 1 0 17.653 45.926 3.000 0 0 0
284 1 1 0 16.890 44.731 3.000 0 0 0
285 1 1 0 17.544 43.472 3.000 0 0 0
286 1 1 0 16.781 42.277 3.000 0 0 0
287 1 1 0 17.435 41.019 3.000 0 0 0
288 1 1 0 16.672 39.824 3.000 0 0 0
289 1 1 0 17.326 38.565 3.000 0 0 0
290 1 1 0 16.563 37.370 3.000 0 0 0
291 1 1 0 17.217 36.112 3.000 0 0 0
292 1 1 0 16.454 34.916 3.000 0 0 0
293 1 1 0 17.108 33.658 3.000 0 0 0
294 1 1 0 16.345 32.463 3.000 0 0 0
295 1 1 0 16.999 31.205 3.000 0 0 0
296 1 1 0 16.236 30.009 3.000 0 0 0
297 1 1 0 16.890 28.751 3.000 0 0 0
298 1 1 0 16.127 27.556 3.000 0 0 0
299 1 1 0 16.781 26.297 3.000 0 0 0
300 1 1 0 16.018 25.102 3.000 0 0 0
301 1 1 0 16.672 23.844 3.000 0 0 0
302 1 1 0 15.909 22.648 3.000 0 0 0
303 1 1 0 16.563 21.390 3.000 0 0 0
304 1 1 0 15.800 20.195 3.000 0 0 0
305 1 1 0 16.454 18.937 3.000 0 0 0
306 1 1 0 15.691 17.741 3.000 0 0 0
307 1 1 0 16.345 16.483 3.000 0 0 0
308 1 1 0 15.582 15.288 3.000 0 0 0
309 1 1 0 16.236 14.029 3.000 0 0 0
310 1 1 0 15.473 12.834 3.000 0 0 0
311 1 1 0 16.127 11.576 3.000 0 0 0
312 1 1 0 15.364 10.381 3.000 0 0 0
313 1 1 0 16.018 9.122 3.000 0 0 0
314 1 1 0 15.255 7.927 3.000 0 0 0
315 1 1 0 15.909 6.669 3.000 0 0 0
316 1 1 0 15.146 5.473 3.000 0 0 0
317 1 1 0 15.800 4.215 3.000 0 0 0
318 1 1 0 15.037 3.020 3.000 0 0 0
319 1 1 0 15.691 1.762 3.000 0 0 0
320 1 1 0 14.929 0.566 3.000 0 0 0
321 1 1 0 19.832 47.058 3.000 0 0 0
322 1 1 0 19.069 45.863 3.000 0 0 0
323 1 1 0 19.723 44.605 3.000 0 0 0
324 1 1 0 18.960 43.410 3.000 0 0 0
325 1 1 0 19.614 42.151 3.000 0 0 0
326 1 1 0 18.851 40.956 3.000 0 0 0
327 1 1 0 19.505 39.698 3.000 0 0 0
328 1 1 0 18.742 38.502 3.000 0 0 0
329 1 1 0 19.396 37.244 3.000 0 0 0
330 1 1 0 18.633 36.049 3.000 0 0 0
331 1 1 0 19.287 34.791 3.000 0 0 0
332 1 1 0 18.524 33.595 3.000 0 0 0
333 1 1 0 19.178 32.337 3.000 0 0 0
334 1 1 0 18.415 31.142 3.000 0 0 0
335 1 1 0 19.069 29.883 3.000 0 0 0
336 1 1 0 18.307 28.688 3.000 0 0 0
337 1 1 0 18.960 27.430 3.000 0 0 0
338 1 1 0 18.198 26.234 3.000 0 0 0
339 1 1 0 18.851 24.976 3.000 0 0 0
340 1 1 0 18.089 23.781 3.000 0 0 0
341 1 1 0 18.742 22.523 3.000 0 0 0
342 1 1 0 17.980 21.327 3.000 0 0 0
343 1 1 0 18.633 20.069 3.000 0 0 0
344 1 1 0 17.871 18.874 3.000 0 0 0
345 1 1 0 18.524 17.615 3.000 0 0 0
346 1 1 0 17.762 16.420 3.000 0 0 0
347 1 1 0 18.415 15.162 3.000 0 0 0
348 1 1 0 17.653 13.967 3.000 0 0 0
349 1 1 0 18.307 12.708 3.000 0 0 0
350 1 1 0 17.544 11.513 3.000 0 0 0
351 1 1 0 18.198 10.255 3.000 0 0 0
352 1 1 0 17.435 9.059 3.000 0 0 0
353 1 1 0 18.089 7.801 3.000 0 0 0
354 1 1 0 17.326 6.606 3.000 0 0 0
355 1 1 0 17.980 5.348 3.000 0 0 0
356 1 1 0 17.217 4.152 3.000 0 0 0
357 1 1 0 17.871 2.894 3.000 0 0 0
358 1 1 0 17.108 1.699 3.000 0 0 0
359 1 1 0 17.762 0.440 3.000 0 0 0
360 1 1 0 21.249 46.996 3.000 0 0 0
361 1 1 0 21.902 45.737 3.000 0 0 0
362 1 1 0 21.140 44.542 3.000 0 0 0
363 1 1 0 21.793 43.284 3.000 0 0 0
364 1 1 0 21.031 42.088 3.000 0 0 0
365 1 1 0 21.685 40.830 3.000 0 0 0
366 1 1 0 20.922 39.635 3.000 0 0 0
367 1 1 0 21.576 38.377 3.000 0 0 0
368 1 1 0 20.813 37.181 3.000 0 0 0
369 1 1 0 21.467 35.923 3.000 0 0 0
370 1 1 0 20.704 34.728 3.000 0 0 0
371 1 1 0 21.358 33.469 3.000 0 0 0
372 1 1 0 20.595 32.274 3.000 0 0 0
373 1 1 0 21.249 31.016 3.000 0 0 0
374 1 1 0 20.486 29.820 3.000 0 0 0
375 1 1 0 21.140 28.562 3.000 0 0 0
376 1 1 0 20.377 27.367 3.000 0 0 0
377 1 1 0 21.031 26.109 3.000 0 0 0
378 1 1 0 20.268 24.913 3.000 0 0 0
379 1 1 0 20.922 23.655 3.000 0 0 0
380 1 1 0 20.159 22.460 3.000 0 0 0
381 1 1 0 20.813 21.201 3.000 0 0 0
382 1 1 0 20.050 20.006 3.000 0 0 0
383 1 1 0 20.704 18.748 3.000 0 0 0
384 1 1 0 19.941 17.553 3.000 0 0 0
385 1 1 0 20.595 16.294 3.000 0 0 0
386 1 1 0 19.832 15.099 3.000 0 0 0
387 1 1 0 20.486 13.841 3.000 0 0 0
388 1 1 0 19.723 12.645 3.000 0 0 0
389 1 1 0 20.377 11.387 3.000 0 0 0
390 1 1 0 19.614 10.192 3.000 0 0 0
391 1 1 0 20.268 8.934 3.000 0 0 0
392 1 1 0 19.505 7.738 3.000 0 0 0
393 1 1 0 20.159 6.480 3.000 0 0 0
394 1 1 0 19.396 5.285 3.000 0 0 0
395 1 1 0 20.050 4.026 3.000 0 0 0
396 1 1 0 19.287 2.831 3.000 0 0 0
397 1 1 0 19.941 1.573 3.000 0 0 0
398 1 1 0 19.178 0.377 3.000 0 0 0
399 1 1 0 24.082 46.870 3.000 0 0 0
400 1 1 0 23.319 45.674 3.000 0 0 0
401 1 1 0 23.973 44.416 3.000 0 0 0
402 1 1 0 23.210 43.221 3.000 0 0 0
403 1 1 0 23.864 41.963 3.000 0 0 0
404 1 1 0 23.101 40.767 3.000 0 0 0
405 1 1 0 23.755 39.509 3.000 0 0 0
406 1 1 0 22.992 38.314 3.000 0 0 0
407 1 1 0 23.646 37.055 3.000 0 0 0
408 1 1 0 22.883 35.860 3.000 0 0 0
409 1 1 0 23.537 34.602 3.000 0 0 0
410 1 1 0 22.774 33.406 3.000 0 0 0
411 1 1 0 23.428 32.148 3.000 0 0 0
412 1 1 0 22.665 30.953 3.000 0 0 0
413 1 1 0 23.319 29.695 3.000 0 0 0
414 1 1 0 22.556 28.499 3.000 0 0 0
415 1 1 0 23.210 27.241 3.000 0 0 0
416 1 1 0 22.447 26.046 3.000 0 0 0
417 1 1 0 23.101 24.787 3.000 0 0 0
418 1 1 0 22.338 23.592 3.000 0 0 0
419 1 1 0 22.992 22.334 3.000 0 0 0
420 1 1 0 22.229 21.139 3.000 0 0 0
421 1 1 0 22.883 19.880 3.000 0 0 0
422 1 1 0 22.120 18.685 3.000 0 0 0
423 1 1 0 22.774 17.427 3.000 0 0 0
424 1 1 0 22.011 16.231 3.000 0 0 0
425 1 1 0 22.665 14.973 3.000 0 0 0
426 1 1 0 21.902 13.778 3.000 0 0 0
427 1 1 0 22.556 12.520 3.000 0 0 0
428 1 1 0 21.793 11.324 3.000 0 0 0
429 1 1 0 22.447 10.066 3.000 0 0 0
430 1 1 0 21.685 8.871 3.000 0 0 0
431 1 1 0 22.338 7.612 3.000 0 0 0
432 1 1 0 21.576 6.417 3.000 0 0 0
433 1 1 0 22.229 5.159 3.000 0 0 0
434 1 1 0 21.467 3.963 3.000 0 0 0
435 1 1 0 22.120 2.705 3.000 0 0 0
436 1 1 0 21.358 1.510 3.000 0 0 0
437 1 1 0 22.011 0.252 3.000 0 0 0
438 1 1 0 25.498 46.807 3.000 0 0 0
439 1 1 0 26.152 45.549 3.000 0 0 0
440 1 1 0 25.389 44.353 3.000 0 0 0
441 1 1 0 26.043 43.095 3.000 0 0 0
442 1 1 0 25.280 41.900 3.000 0 0 0
443 1 1 0 25.934 40.641 3.000 0 0 0
444 1 1 0 25.171 39.446 3.000 0 0 0
445 1 1 0 25.825 38.188 3.000 0 0 0
446 1 1 0 25.062 36.992 3.000 0 0 0
447 1 1 0 25.716 35.734 3.000 0 0 0
448 1 1 0 24.954 34.539 3.000 0 0 0
449 1 1 0 25.607 33.281 3.000 0 0 0
450 1 1 0 24.845 32.085 3.000 0 0 0
451 1 1 0 25.498 30.827 3.000 0 0 0
452 1 1 0 24.736 29.632 3.000 0 0 0
453 1 1 0 25.389 28.373 3.000 0 0 0
454 1 1 0 24.627 27.178 3.000 0 0 0
455 1 1 0 25.280 25.920 3.000 0 0 0
456 1 1 0 24.518 24.725 3.000 0 0 0
457 1 1 0 25.171 23.466 3.000 0 0 0
458 1 1 0 24.409 22.271 3.000 0 0 0
459 1 1 0 25.062 21.013 3.000 0 0 0
460 1 1 0 24.300 19.817 3.000 0 0 0
461 1 1 0 24.954 18.559 3.000 0 0 0
462 1 1 0 24.191 17.364 3.000 0 0 0
463 1 1 0 24.845 16.106 3.000 0 0 0
464 1 1 0 24.082 14.910 3.000 0 0 0
465 1 1 0 24.736 13.652 3.000 0 0 0
466 1 1 0 23.973 12.457 3.000 0 0 0
467 1 1 0 24.627 11.198 3.000 0 0 0
468 1 1 0 23.864 10.003 3.000 0 0 0
469 1 1 0 24.518 8.745 3.000 0 0 0
470 1 1 0 23.755 7.549 3.000 0 0 0
471 1 1 0 24.409 6.291 3.000 0 0 0
472 1 1 0 23.646 5.096 3.000 0 0 0
473 1 1 0 24.300 3.838 3.000 0 0 0
474 1 1 0 23.537 2.642 3.000 0 0 0
475 1 1 0 24.191 1.384 3.000 0 0 0
476 1 1 0 23.428 0.189 3.000 0 0 0
477 1 1 0 27.569 45.486 3.000 0 0 0
478 1 1 0 27.460 43.032 3.000 0 0 0
479 1 1 0 27.351 40.578 3.000 0 0 0
480 1 1 0 27.242 38.125 3.000 0 0 0
481 1 1 0 27.133 35.671 3.000 0 0 0
482 1 1 0 27.024 33.218 3.000 0 0 0
483 1 1 0 26.915 30.764 3.000 0 0 0
484 1 1 0 27.569 29.506 3.000 0 0 0
485 1 1 0 26.806 28.311 3.000 0 0 0
486 1 1 0 27.460 27.052 3.000 0 0 0
487 1 1 0 26.697 25.857 3.000 0 0 0
488 1 1 0 27.351 24.599 3.000 0 0 0
489 1 1 0 26.588 23.403 3.000 0 0 0
490 1 1 0 27.242 22.145 3.000 0 0 0
491 1 1 0 26.479 20.950 3.000 0 0 0
492 1 1 0 27.133 19.692 3.000 0 0 0
493 1 1 0 26.370 18.496 3.000 0 0 0
494 1 1 0 27.024 17.238 3.000 0 0 0
495 1 1 0 26.261 16.043 3.000 0 0 0
496 1 1 0 26.915 14.784 3.000 0 0 0
497 1 1 0 26.152 13.589 3.000 0 0 0
498 1 1 0 26.806 12.331 3.000 0 0 0
499 1 1 0 26.043 11.135 3.000 0 0 0
500 1 1 0 26.697 9.877 3.000 0 0 0
501 1 1 0 25.934 8.682 3.000 0 0 0
502 1 1 0 26.588 7.424 3.000 0 0 0
503 1 1 0 25.825 6.228 3.000 0 0 0
504 1 1 0 26.479 4.970 3.000 0 0 0
505 1 1 0 25.716 3.775 3.000 0 0 0
506 1 1 0 26.370 2.516 3.000 0 0 0
507 1 1 0 25.607 1.321 3.000 0 0 0
508 1 1 0 26.261 0.063 3.000 0 0 0
509 2 2 0 -0.000 15.980 6.400 0 0 0
510 2 2 0 0.109 13.526 6.400 0 0 0
511 2 2 0 0.218 11.073 6.400 0 0 0
512 2 2 0 0.327 8.619 6.400 0 0 0
513 2 2 0 0.436 6.165 6.400 0 0 0
514 2 2 0 0.545 3.712 6.400 0 0 0
515 2 2 0 0.654 1.258 6.400 0 0 0
516 2 2 0 0.000 0.000 6.400 0 0 0
517 2 2 0 0.763 46.744 6.400 0 0 0
518 2 2 0 0.109 45.486 6.400 0 0 0
519 2 2 0 0.872 44.290 6.400 0 0 0
520 2 2 0 0.218 43.032 6.400 0 0 0
521 2 2 0 0.981 41.837 6.400 0 0 0
522 2 2 0 0.327 40.578 6.400 0 0 0
523 2 2 0 1.090 39.383 6.400 0 0 0
524 2 2 0 0.436 38.125 6.400 0 0 0
525 2 2 0 1.199 36.930 6.400 0 0 0
526 2 2 0 0.545 35.671 6.400 0 0 0
527 2 2 0 1.308 34.476 6.400 0 0 0
528 2 2 0 0.654 33.218 6.400 0 0 0
529 2 2 0 1.417 32.022 6.400 0 0 0
530 2 2 0 0.763 30.764 6.400 0 0 0
531 2 2 0 1.526 29.569 6.400 0 0 0
532 2 2 0 0.872 28.311 6.400 0 0 0
533 2 2 0 1.635 27.115 6.400 0 0 0
534 2 2 0 0.981 25.857 6.400 0 0 0
535 2 2 0 1.743 24.662 6.400 0 0 0
536 2 2 0 1.090 23.403 6.400 0 0 0
537 2 2 0 1.852 22.208 6.400 0 0 0
538 2 2 0 1.199 20.950 6.400 0 0 0
539 2 2 0 1.961 19.754 6.400 0 0 0
540 2 2 0 1.308 18.496 6.400 0 0 0
541 2 2 0 2.070 17.301 6.400 0 0 0
542 2 2 0 1.417 16.043 6.400 0 0 0
543 2 2 0 2.179 14.847 6.400 0 0 0
544 2 2 0 1.526 13.589 6.400 0 0 0
545 2 2 0 2.288 12.394 6.400 0 0 0
546 2 2 0 1.635 11.135 6.400 0 0 0
547 2 2 0 2.397 9.940 6.400 0 0 0
548 2 2 0 1.743 8.682 6.400 0 0 0
549 2 2 0 2.506 7.487 6.400 0 0 0
550 2 2 0 1.852 6.228 6.400 0 0 0
551 2 2 0 2.615 5.033 6.400 0 0 0
552 2 2 0 1.961 3.775 6.400 0 0 0
553 2 2 0 2.724 2.579 6.400 0 0 0
554 2 2 0 2.070 1.321 6.400 0 0 0
555 2 2 0 2.833 0.126 6.400 0 0 0
556 2 2 0 2.179 46.807 6.400 0 0 0
557 2 2 0 2.942 45.611 6.400 0 0 0
558 2 2 0 2.288 44.353 6.400 0 0 0
559 2 2 0 3.051 43.158 6.400 0 0 0
560 2 2 0 2.397 41.900 6.400 0 0 0
561 2 2 0 3.160 40.704 6.400 0 0 0
562 2 2 0 2.506 39.446 6.400 0 0 0
563 2 2 0 3.269 38.251 6.400 0 0 0
564 2 2 0 2.615 36.992 6.400 0 0 0
565 2 2 0 3.378 35.797 6.400 0 0 0
566 2 2 0 2.724 34.539 6.400 0 0 0
567 2 2 0 3.487 33.344 6.400 0 0 0
568 2 2 0 2.833 32.085 6.400 0 0 0
569 2 2 0 3.596 30.890 6.400 0 0 0
570 2 2 0 2.942 29.632 6.400 0 0 0
571 2 2 0 3.705 28.436 6.400 0 0 0
572 2 2 0 3.051 27.178 6.400 0 0 0
573 2 2 0 3.814 25.983 6.400 0 0 0
574 2 2 0 3.160 24.725 6.400 0 0 0
575 2 2 0 3.923 23.529 6.400 0 0 0
576 2 2 0 3.269 22.271 6.400 0 0 0
577 2 2 0 4.032 21.076 6.400 0 0 0
578 2 2 0 3.378 19.817 6.400 0 0 0
579 2 2 0 4.141 18.622 6.400 0 0 0
580 2 2 0 3.487 17.364 6.400 0 0 0
581 2 2 0 4.250 16.168 6.400 0 0 0
582 2 2 0 3.596 14.910 6.400 0 0 0
583 2 2 0 4.359 13.715 6.400 0 0 0
584 2 2 0 3.705 12.457 6.400 0 0 0
585 2 2 0 4.468 11.261 6.400 0 0 0
586 2 2 0 3.814 10.003 6.400 0 0 0
587 2 2 0 4.577 8.808 6.400 0 0 0
588 2 2 0 3.923 7.549 6.400 0 0 0
589 2 2 0 4.686 6.354 6.400 0 0 0
590 2 2 0 4.032 5.096 6.400 0 0 0
591 2 2 0 4.795 3.901 6.400 0 0 0
592 2 2 0 4.141 2.642 6.400 0 0 0
593 2 2 0 4.904 1.447 6.400 0 0 0
594 2 2 0 4.250 0.189 6.400 0 0 0
595 2 2 0 5.012 46.933 6.400 0 0 0
596 2 2 0 4.359 45.674 6.400 0 0 0
597 2 2 0 5.121 44.479 6.400 0 0 0
598 2 2 0 4.468 43.221 6.400 0 0 0
599 2 2 0 5.230 42.025 6.400 0 0 0
600 2 2 0 4.577 40.767 6.400 0 0 0
601 2 2 0 5.339 39.572 6.400 0 0 0
602 2 2 0 4.686 38.314 6.400 0 0 0
603 2 2 0 5.448 37.118 6.400 0 0 0
604 2 2 0 4.795 35.860 6.400 0 0 0
605 2 2 0 5.557 34.665 6.400 0 0 0
606 2 2 0 4.904 33.406 6.400 0 0 0
607 2 2 0 5.666 32.211 6.400 0 0 0
608 2 2 0 5.012 30.953 6.400 0 0 0
609 2 2 0 5.775 29.758 6.400 0 0 0
610 2 2 0 5.121 28.499 6.400 0 0 0
611 2 2 0 5.884 27.304 6.400 0 0 0
612 2 2 0 5.230 26.046 6.400 0 0 0
613 2 2 0 5.993 24.850 6.400 0 0 0
614 2 2 0 5.339 23.592 6.400 0 0 0
615 2 2 0 6.102 22.397 6.400 0 0 0
616 2 2 0 5.448 21.139 6.400 0 0 0
617 2 2 0 6.211 19.943 6.400 0 0 0
618 2 2 0 5.557 18.685 6.400 0 0 0
619 2 2 0 6.320 17.490 6.400 0 0 0
620 2 2 0 5.666 16.231 6.400 0 0 0
621 2 2 0 6.429 15.036 6.400 0 0 0
622 2 2 0 5.775 13.778 6.400 0 0 0
623 2 2 0 6.538 12.582 6.400 0 0 0
624 2 2 0 5.884 11.324 6.400 0 0 0
625 2 2 0 6.647 10.129 6.400 0 0 0
626 2 2 0 5.993 8.871 6.400 0 0 0
627 2 2 0 6.756 7.675 6.400 0 0 0
628 2 2 0 6.102 6.417 6.400 0 0 0
629 2 2 0 6.865 5.222 6.400 0 0 0
630 2 2 0 6.211 3.963 6.400 0 0 0
631 2 2 0 6.974 2.768 6.400 0 0 0
632 2 2 0 6.320 1.510 6.400 0 0 0
633 2 2 0 7.083 0.315 6.400 0 0 0
634 2 2 0 6.429 46.996 6.400 0 0 0
635 2 2 0 7.192 45.800 6.400 0 0 0
636 2 2 0 6.538 44.542 6.400 0 0 0
637 2 2 0 7.301 43.347 6.400 0 0 0
638 2 2 0 6.647 42.088 6.400 0 0 0
639 2 2 0 7.410 40.893 6.400 0 0 0
640 2 2 0 6.756 39.635 6.400 0 0 0
641 2 2 0 7.519 38.439 6.400 0 0 0
642 2 2 0 6.865 37.181 6.400 0 0 0
643 2 2 0 7.628 35.986 6.400 0 0 0
644 2 2 0 6.974 34.728 6.400 0 0 0
645 2 2 0 7.737 33.532 6.400 0 0 0
646 2 2 0 7.083 32.274 6.400 0 0 0
647 2 2 0 7.846 31.079 6.400 0 0 0
648 2 2 0 7.192 29.820 6.400 0 0 0
649 2 2 0 7.955 28.625 6.400 0 0 0
650 2 2 0 7.301 27.367 6.400 0 0 0
651 2 2 0 8.064 26.172 6.400 0 0 0
652 2 2 0 7.410 24.913 6.400 0 0 0
653 2 2 0 8.173 23.718 6.400 0 0 0
654 2 2 0 7.519 22.460 6.400 0 0 0
655 2 2 0 8.282 21.264 6.400 0 0 0
656 2 2 0 7.628 20.006 6.400 0 0 0
657 2 2 0 8.390 18.811 6.400 0 0 0
658 2 2 0 7.737 17.553 6.400 0 0 0
659 2 2 0 8.499 16.357 6.400 0 0 0
660 2 2 0 7.846 15.099 6.400 0 0 0
661 2 2 0 8.608 13.904 6.400 0 0 0
662 2 2 0 7.955 12.645 6.400 0 0 0
663 2 2 0 8.717 11.450 6.400 0 0 0
664 2 2 0 8.064 10.192 6.400 0 0 0
665 2 2 0 8.826 8.996 6.400 0 0 0
666 2 2 0 8.173 7.738 6.400 0 0 0
667 2 2 0 8.935 6.543 6.400 0 0 0
668 2 2 0 8.282 5.285 6.400 0 0 0
669 2 2 0 9.044 4.089 6.400 0 0 0
670 2 2 0 8.390 2.831 6.400 0 0 0
671 2 2 0 9.153 1.636 6.400 0 0 0
672 2 2 0 8.499 0.377 6.400 0 0 0
673 2 2 0 9.262 47.121 6.400 0 0 0
674 2 2 0 8.608 45.863 6.400 0 0 0
675 2 2 0 9.371 44.668 6.400 0 0 0
676 2 2 0 8.717 43.410 6.400 0 0 0
677 2 2 0 9.480 42.214 6.400 0 0 0
678 2 2 0 8.826 40.956 6.400 0 0 0
679 2 2 0 9.589 39.761 6.400 0 0 0
680 2 2 0 8.935 38.502 6.400 0 0 0
681 2 2 0 9.698 37.307 6.400 0 0 0
682 2 2 0 9.044 36.049 6.400 0 0 0
683 2 2 0 9.807 34.853 6.400 0 0 0
684 2 2 0 9.153 33.595 6.400 0 0 0
685 2 2 0 9.916 32.400 6.400 0 0 0
686 2 2 0 9.262 31.142 6.400 0 0 0
687 2 2 0 10.025 29.946 6.400 0 0 0
688 2 2 0 9.371 28.688 6.400 0 0 0
689 2 2 0 10.134 27.493 6.400 0 0 0
690 2 2 0 9.480 26.234 6.400 0 0 0
691 2 2 0 10.243 25.039 6.400 0 0 0
692 2 2 0 9.589 23.781 6.400 0 0 0
693 2 2 0 10.352 22.586 6.400 0 0 0
694 2 2 0 9.698 21.327 6.400 0 0 0
695 2 2 0 10.461 20.132 6.400 0 0 0
696 2 2 0 9.807 18.874 6.400 0 0 0
697 2 2 0 10.570 17.678 6.400 0 0 0
698 2 2 0 9.916 16.420 6.400 0 0 0
699 2 2 0 10.679 15.225 6.400 0 0 0
700 2 2 0 10.025 13.967 6.400 0 0 0
701 2 2 0 10.788 12.771 6.400 0 0 0
702 2 2 0 10.134 11.513 6.400 0 0 0
703 2 2 0 10.897 10.318 6.400 0 0 0
704 2 2 0 10.243 9.059 6.400 0 0 0
705 2 2 0 11.006 7.864 6.400 0 0 0
706 2 2 0 10.352 6.606 6.400 0 0 0
707 2 2 0 11.115 5.410 6.400 0 0 0
708 2 2 0 10.461 4.152 6.400 0 0 0
709 2 2 0 11.224 2.957 6.400 0 0 0
710 2 2 0 10.570 1.699 6.400 0 0 0
711 2 2 0 11.333 0.503 6.400 0 0 0
712 2 2 0 10.679 47.184 6.400 0 0 0
713 2 2 0 11.442 45.989 6.400 0 0 0
714 2 2 0 10.788 44.731 6.400 0 0 0
715 2 2 0 11.551 43.535 6.400 0 0 0
716 2 2 0 10.897 42.277 6.400 0 0 0
717 2 2 0 11.660 41.082 6.400 0 0 0
718 2 2 0 11.006 39.824 6.400 0 0 0
719 2 2 0 11.768 38.628 6.400 0 0 0
720 2 2 0 11.115 37.370 6.400 0 0 0
721 2 2 0 11.877 36.175 6.400 0 0 0
722 2 2 0 11.224 34.916 6.400 0 0 0
723 2 2 0 11.986 33.721 6.400 0 0 0
724 2 2 0 11.333 32.463 6.400 0 0 0
725 2 2 0 12.095 31.267 6.400 0 0 0
726 2 2 0 11.442 30.009 6.400 0 0 0
727 2 2 0 12.204 28.814 6.400 0 0 0
728 2 2 0 11.551 27.556 6.400 0 0 0
729 2 2 0 12.313 26.360 6.400 0 0 0
730 2 2 0 11.660 25.102 6.400 0 0 0
731 2 2 0 12.422 23.907 6.400 0 0 0
732 2 2 0 11.768 22.648 6.400 0 0 0
733 2 2 0 12.531 21.453 6.400 0 0 0
734 2 2 0 11.877 20.195 6.400 0 0 0
735 2 2 0 12.640 19.000 6.400 0 0 0
736 2 2 0 11.986 17.741 6.400 0 0 0
737 2 2 0 12.749 16.546 6.400 0 0 0
738 2 2 0 12.095 15.288 6.400 0 0 0
739 2 2 0 12.858 14.092 6.400 0 0 0
740 2 2 0 12.204 12.834 6.400 0 0 0
741 2 2 0 12.967 11.639 6.400 0 0 0
742 2 2 0 12.313 10.381 6.400 0 0 0
743 2 2 0 13.076 9.185 6.400 0 0 0
744 2 2 0 12.422 7.927 6.400 0 0 0
745 2 2 0 13.185 6.732 6.400 0 0 0
746 2 2 0 12.531 5.473 6.400 0 0 0
747 2 2 0 13.294 4.278 6.400 0 0 0
748 2 2 0 12.640 3.020 6.400 0 0 0
749 2 2 0 13.403 1.824 6.400 0 0 0
750 2 2 0 12.749 0.566 6.400 0 0 0
751 2 2 0 13.512 47.310 6.400 0 0 0
752 2 2 0 12.858 46.052 6.400 0 0 0
753 2 2 0 13.621 44.857 6.400 0 0 0
754 2 2 0 12.967 43.598 6.400 0 0 0
755 2 2 0 13.730 42.403 6.400 0 0 0
756 2 2 0 13.076 41.145 6.400 0 0 0
757 2 2 0 13.839 39.949 6.400 0 0 0
758 2 2 0 13.185 38.691 6.400 0 0 0
759 2 2 0 13.948 37.496 6.400 0 0 0
760 2 2 0 13.294 36.238 6.400 0 0 0
761 2 2 0 14.057 35.042 6.400 0 0 0
762 2 2 0 13.403 33.784 6.400 0 0 0
763 2 2 0 14.166 32.589 6.400 0 0 0
764 2 2 0 13.512 31.330 6.400 0 0 0
765 2 2 0 14.275 30.135 6.400 0 0 0
766 2 2 0 13.621 28.877 6.400 0 0 0
767 2 2 0 14.384 27.681 6.400 0 0 0
768 2 2 0 13.730 26.423 6.400 0 0 0
769 2 2 0 14.493 25.228 6.400 0 0 0
770 2 2 0 13.839 23.970 6.400 0 0 0
771 2 2 0 14.602 22.774 6.400 0 0 0
772 2 2 0 13.948 21.516 6.400 0 0 0
773 2 2 0 14.711 20.321 6.400 0 0 0
774 2 2 0 14.057 19.062 6.400 0 0 0
775 2 2 0 14.820 17.867 6.400 0 0 0
776 2 2 0 14.166 16.609 6.400 0 0 0
777 2 2 0 14.929 15.414 6.400 0 0 0
778 2 2 0 14.275 14.155 6.400 0 0 0
779 2 2 0 15.037 12.960 6.400 0 0 0
780 2 2 0 14.384 11.702 6.400 0 0 0
781 2 2 0 15.146 10.506 6.400 0 0 0
782 2 2 0 14.493 9.248 6.400 0 0 0
783 2 2 0 15.255 8.053 6.400 0 0 0
784 2 2 0 14.602 6.795 6.400 0 0 0
785 2 2 0 15.364 5.599 6.400 0 0 0
786 2 2 0 14.711 4.341 6.400 0 0 0
787 2 2 0 15.473 3.146 6.400 0 0 0
788 2 2 0 14.820 1.887 6.400 0 0 0
789 2 2 0 15.582 0.692 6.400 0 0 0
790 2 2 0 14.929 47.373 6.400 0 0 0
791 2 2 0 15.691 46.178 6.400 0 0 0
792 2 2 0 15.037 44.919 6.400 0 0 0
793 2 2 0 15.800 43.724 6.400 0 0 0
794 2 2 0 15.146 42.466 6.400 0 0 0
795 2 2 0 15.909 41.270 6.400 0 0 0
796 2 2 0 15.255 40.012 6.400 0 0 0
797 2 2 0 16.018 38.817 6.400 0 0 0
798 2 2 0 15.364 37.559 6.400 0 0 0
799 2 2 0 16.127 36.363 6.400 0 0 0
800 2 2 0 15.473 35.105 6.400 0 0 0
801 2 2 0 16.236 33.910 6.400 0 0 0
802 2 2 0 15.582 32.652 6.400 0 0 0
803 2 2 0 16.345 31.456 6.400 0 0 0
804 2 2 0 15.691 30.198 6.400 0 0 0
805 2 2 0 16.454 29.003 6.400 0 0 0
806 2 2 0 15.800 27.744 6.400 0 0 0
807 2 2 0 16.563 26.549 6.400 0 0 0
808 2 2 0 15.909 25.291 6.400 0 0 0
809 2 2 0 16.672 24.095 6.400 0 0 0
810 2 2 0 16.018 22.837 6.400 0 0 0
811 2 2 0 16.781 21.642 6.400 0 0 0
812 2 2 0 16.127 20.384 6.400 0 0 0
813 2 2 0 16.890 19.188 6.400 0 0 0
814 2 2 0 16.236 17.930 6.400 0 0 0
815 2 2 0 16.999 16.735 6.400 0 0 0
816 2 2 0 16.345 15.476 6.400 0 0 0
817 2 2 0 17.108 14.281 6.400 0 0 0
818 2 2 0 16.454 13.023 6.400 0 0 0
819 2 2 0 17.217 11.828 6.400 0 0 0
820 2 2 0 16.563 10.569 6.400 0 0 0
821 2 2 0 17.326 9.374 6.400 0 0 0
822 2 2 0 16.672 8.116 6.400 0 0 0
823 2 2 0 17.435 6.920 6.400 0 0 0
824 2 2 0 16.781 5.662 6.400 0 0 0
825 2 2 0 17.544 4.467 6.400 0 0 0
826 2 2 0 16.890 3.209 6.400 0 0 0
827 2 2 0 17.653 2.013 6.400 0 0 0
828 2 2 0 16.999 0.755 6.400 0 0 0
829 2 2 0 17.762 47.499 6.400 0 0 0
830 2 2 0 17.108 46.241 6.400 0 0 0
831 2 2 0 17.871 45.045 6.400 0 0 0
832 2 2 0 17.217 43.787 6.400 0 0 0
833 2 2 0 17.980 42.592 6.400 0 0 0
834 2 2 0 17.326 41.333 6.400 0 0 0
835 2 2 0 18.089 40.138 6.400 0 0 0
836 2 2 0 17.435 38.880 6.400 0 0 0
837 2 2 0 18.198 37.684 6.400 0 0 0
838 2 2 0 17.544 36.426 6.400 0 0 0
839 2 2 0 18.307 35.231 6.400 0 0 0
840 2 2 0 17.653 33.973 6.400 0 0 0
841 2 2 0 18.415 32.777 6.400 0 0 0
842 2 2 0 17.762 31.519 6.400 0 0 0
843 2 2 0 18.524 30.324 6.400 0 0 0
844 2 2 0 17.871 29.066 6.400 0 0 0
845 2 2 0 18.633 27.870 6.400 0 0 0
846 2 2 0 17.980 26.612 6.400 0 0 0
847 2 2 0 18.742 25.417 6.400 0 0 0