ITEM: TIMESTEP
0
ITEM: NUMBER OF ATOMS
19496
ITEM: BOX BOUNDS pp pp pp
0.0000000000000000e+00 1.2124284700000000e+02
0.0000000000000000e+00 2.0999877200000000e+02
0.0000000000000000e+00 1.5000000000000000e+01
ITEM: ATOMS id type x y z c_csym c_2[1] c_2[2] c_2[3] c_2[4] c_2[5] c_2[6] c_3 
194 1 0.796 8.588 3 6.02438 -160052 -175461 -114499 -10864.3 34459.1 -3079.9 -7.41383 
195 1 0.075 7.368 3 6.02216 -150075 -189428 -115805 -9035.16 34940.4 -747.262 -7.41419 
196 1 0.771 6.133 3 6.02109 -147184 -144562 -119449 4484.23 28135.1 -3413.3 -7.41347 
197 1 0.05 4.912 3 6.02501 -144676 -152065 -121069 8578.56 25276 -337.421 -7.4137 
198 1 0.746 3.677 3 6.02088 -143294 -144659 -123212 5998.62 18398.7 -3718.23 -7.4136 
199 1 0.025 2.456 3 6.02501 -145998 -149829 -124485 8519.51 13176.2 -79.9633 -7.41352 
200 1 0.721 1.221 3 6.02088 -140082 -149162 -125115 5578.25 6323.13 -3771.35 -7.41327 
201 1 0 0 3 6.0265 -142809 -141022 -125464 -1605.65 -13.7778 0.422611 -7.41311 
366 1 2.214 8.574 3 6.02597 -141120 -154838 -111996 12705.3 38148.2 -8722.26 -7.41366 
367 1 2.91 7.339 3 6.02444 -149434 -144788 -115634 7560.64 30813.3 -13436.6 -7.41355 
368 1 2.189 6.118 3 6.02246 -131444 -138495 -118007 -3548.99 29946.4 -9819.17 -7.41326 
369 1 2.886 4.883 3 6.02426 -177565 -112676 -119885 6719.43 23107.6 -14501.5 -7.41367 
370 1 2.164 3.662 3 6.0234 -122326 -122814 -122019 8325.16 18940.4 -10586.2 -7.41283 
371 1 2.861 2.427 3 6.02425 -126782 -118884 -122731 6578.25 12540.9 -15238.2 -7.41279 
372 1 2.139 1.206 3 6.02194 -124955 -129549 -124234 13509.3 6380.38 -11104.9 -7.41271 
537 1 5.05 8.545 3 6.02332 -141947 -146816 -110063 -11469.7 31516.1 -21718.7 -7.41383 
538 1 4.328 7.325 3 6.02159 -119829 -128533 -113848 -21019.7 32844.1 -17075.7 -7.41318 
539 1 5.025 6.089 3 6.02159 -131166 -117079 -114569 -30167.9 26093.7 -23670.7 -7.41312 
540 1 4.303 4.869 3 6.02193 -177513 -154292 -118763 -3893.78 23504.4 -19107.7 -7.41394 
541 1 5 3.634 3 6.02152 -137397 -133496 -118519 -9505.77 17434.9 -24762.7 -7.41311 
542 1 4.279 2.413 3 6.023 -137651 -153315 -121435 12181.1 12058.8 -20531.5 -7.41344 
543 1 4.975 1.178 3 6.023 -146789 -155064 -120855 -1851.31 6489.27 -25103.5 -7.41331 
708 1 6.468 8.531 3 6.023 -134744 -157822 -108581 14763.5 33646.4 -21327.5 -7.4143 
709 1 7.164 7.296 3 6.02243 -149827 -143631 -108267 486.782 27133 -30207.6 -7.41421 
710 1 6.443 6.075 3 6.02597 -137795 -154979 -113780 16589.9 26244.2 -24736.4 -7.41386 
711 1 7.139 4.84 3 6.02597 -146545 -146746 -112332 4917.1 20660.2 -32458.3 -7.41395 
712 1 6.418 3.619 3 6.02243 -139331 -151879 -117300 11263.6 16269 -27468.4 -7.41371 
713 1 7.114 2.384 3 6.02257 -141256 -148420 -115431 2635.74 11599.6 -33389.1 -7.41411 
714 1 6.393 1.163 3 6.02122 -144812 -157720 -118573 16801.9 4640.16 -29401.5 -7.41344 
879 1 9.303 8.502 3 6.023 -149181 -146555 -100114 2505.91 26447.2 -34161.2 -7.41464 
880 1 8.582 7.281 3 6.02152 -129567 -143227 -108604 2929.73 26507.3 -27450.7 -7.41366 
881 1 9.279 6.046 3 6.02193 -187318 -147913 -104625 -14442.8 22425 -36967.9 -7.41471 
882 1 8.557 4.826 3 6.02159 -121464 -127111 -111958 -18495.1 18487.4 -31270.3 -7.41327 
883 1 9.254 3.59 3 6.02159 -127677 -122048 -108432 -32480 15653.9 -38671.8 -7.41347 
884 1 8.532 2.37 3 6.02332 -130527 -157542 -113715 -644.053 8465.28 -34088.1 -7.4136 
885 1 9.229 1.135 3 6.02446 -127078 -130377 -111295 -4143.19 6822.66 -38919 -7.41346 
9774 2 0.622 8.603 6.4 6.0244 -131069 -164513 -112371 9162.46 38331.7 -1860.74 -7.41376 
9775 2 0.647 6.147 6.4 6.0265 -124060 -129679 -118516 -8228.44 30175.8 -2558.11 -7.4131 
9776 2 0.672 3.691 6.4 6.02515 -125994 -127598 -122815 -9860.41 19150.5 -3228.71 -7.41274 
9777 2 0.697 1.235 6.4 6.0243 -172017 -120111 -125119 -8198.03 6480.75 -3639.69 -7.41345 
9778 2 0 0 6.4 6.02539 -142563 -140774 -125470 10949 15.533 -40.6614 -7.41311 
9942 2 2.04 8.617 6.4 6.02457 -149646 -140578 -113864 -9145.63 34572.1 -10147.6 -7.41417 
9943 2 2.761 7.396 6.4 6.02243 -137601 -154312 -114798 -1991.43 33494.7 -10630.3 -7.41384 
9944 2 2.065 6.161 6.4 6.02322 -147359 -142825 -118680 -9574.49 28314.1 -10796.4 -7.41378 
9945 2 2.786 4.94 6.4 6.02152 -139316 -154169 -119867 -3993 24269.5 -12610 -7.41322 
9946 2 2.09 3.705 6.4 6.02325 -151933 -179433 -122578 7992.36 18655.9 -11217.3 -7.41367 
9947 2 2.811 2.485 6.4 6.02248 -132714 -137182 -123045 41666.6 12601.9 -14171.6 -7.41285 
9948 2 2.114 1.249 6.4 6.02002 -174801 -115422 -124434 24073.3 6612.31 -11365.1 -7.41323 
9949 2 2.836 0.029 6.4 6.02297 -127316 -127152 -123995 24819.3 -161.853 -15015.4 -7.41275 
10113 2 4.876 8.646 6.4 6.02426 -168477 -125130 -109996 -3769.91 34511.1 -16592.3 -7.41409 
10114 2 4.179 7.411 6.4 6.02246 -143433 -127468 -113785 3652.71 31177.6 -19998.8 -7.4135 
10115 2 4.9 6.19 6.4 6.023 -135213 -155908 -115504 -2704.8 27179.7 -20076 -7.41393 
10116 2 4.204 4.955 6.4 6.02243 -149480 -143461 -117985 -9425.01 23410.9 -21065.1 -7.41344 
10117 2 4.925 3.734 6.4 6.02444 -138640 -152839 -119390 -4997.58 17168.8 -22604.1 -7.41356 
10118 2 4.229 2.499 6.4 6.02597 -146347 -146543 -121010 -11378.4 12992.4 -21531.6 -7.41325 
10119 2 4.95 1.278 6.4 6.02434 -140327 -150215 -121122 -440.463 5530.13 -24372.8 -7.41346 
10120 2 4.254 0.043 6.4 6.02389 -140001 -156266 -122304 -9120.44 637.205 -21322.9 -7.4139 
10284 2 6.293 8.66 6.4 6.02426 -182875 -111366 -107382 -12307.4 32095 -26635.6 -7.41424 
10285 2 7.015 7.439 6.4 6.0234 -119054 -129775 -110572 918.223 27861.7 -24188.3 -7.41336 
10286 2 6.318 6.204 6.4 6.02332 -139354 -149093 -111879 4604.48 26762.3 -28613.6 -7.41373 
10287 2 7.04 4.984 6.4 6.02159 -120441 -127649 -114503 32772.5 19709.3 -28311.7 -7.41313 
10288 2 6.343 3.748 6.4 6.02159 -127950 -120055 -115507 21314.7 18126 -29832.1 -7.41307 
10289 2 7.065 2.528 6.4 6.02332 -130527 -154863 -116796 15418.5 9577.64 -31365.2 -7.41368 
10290 2 6.368 1.293 6.4 6.02246 -135651 -134632 -117765 1472.35 7248.35 -30209.1 -7.41324 
10291 2 7.089 0.072 6.4 6.02152 -134138 -126788 -116929 10854.1 -1154.28 -33002.2 -7.4134 
10455 2 9.129 8.689 6.4 6.02457 -134280 -156763 -105444 794.919 26585.3 -25483.8 -7.4147 
10456 2 8.433 7.454 6.4 6.02243 -147846 -144692 -104463 -11548.7 27960.3 -33513.7 -7.41462 
10457 2 9.154 6.233 6.4 6.02597 -139748 -155597 -109146 699.666 20598.3 -30705 -7.41391 
10458 2 8.458 4.998 6.4 6.02444 -147004 -147137 -108974 -15471.8 21596.2 -35256.5 -7.41414 
10459 2 9.179 3.777 6.4 6.02243 -141287 -152873 -111591 1828.53 12451 -34957.3 -7.41381 
10460 2 8.483 2.542 6.4 6.02169 -141952 -150135 -112123 -14174.2 12604.7 -36048.2 -7.41412 
10461 2 9.204 1.321 6.4 6.02297 -133188 -138226 -112439 14932.7 2947.9 -37601.8 -7.41355 
10462 2 8.507 0.086 6.4 6.02424 -127578 -128942 -113831 -11080.2 2217.86 -35685.1 -7.41343 
1050 1 10.721 8.488 3 6.02426 -120160 -128793 -103778 19257.1 25025.7 -26767.8 -7.41386 
1051 1 11.418 7.253 3 6.0234 -132925 -118246 -96254.8 -970.283 22282.7 -38734.9 -7.41427 
1052 1 10.696 6.032 3 6.02426 -168751 -123864 -107159 18917.5 18943.7 -31590 -7.41439 
1053 1 11.393 4.797 3 6.02246 -140396 -133662 -100512 -13679.6 17904.3 -40884.5 -7.41423 
1054 1 10.672 3.576 3 6.02444 -139032 -156480 -108517 19109.3 10877.1 -35425.5 -7.41395 
1055 1 11.368 2.341 3 6.02597 -148306 -150619 -103999 1454.09 11195.5 -41876.5 -7.41395 
1056 1 10.647 1.12 3 6.02238 -140455 -160668 -108631 19960.2 1456.56 -38072.9 -7.41441 
1221 1 13.557 8.459 3 6.02457 -151490 -146604 -87429.7 -1312.4 21170.1 -37869.1 -7.41535 
1222 1 12.836 7.238 3 6.02152 -135140 -156289 -101868 18124.4 17605.1 -29065.7 -7.41476 
1223 1 13.532 6.003 3 6.02457 -146490 -149015 -91876.1 -247.641 18670 -40444.9 -7.41531 
1224 1 12.811 4.782 3 6.02152 -137330 -157092 -103462 16294.8 11417.8 -33666 -7.41435 
1225 1 13.507 3.547 3 6.02303 -151407 -183494 -96049.4 -18352.9 13996.3 -41867 -7.4154 
1226 1 12.786 2.327 3 6.02219 -142042 -154904 -103723 -15615.6 3744.6 -37173.3 -7.41408 
1227 1 13.482 1.091 3 6.01874 -143285 -161524 -99455.8 -40939.6 7702.47 -41824.1 -7.41469 
1392 1 14.975 8.445 3 6.02457 -130575 -141441 -98588.3 8170.18 14863.9 -24410.2 -7.41434 
1393 1 15.672 7.21 3 6.02172 -180478 -117874 -83188.1 -2290.76 18384 -37925.1 -7.41557 
1394 1 14.95 5.989 3 6.02441 -121653 -127169 -99527.3 20138.6 10265.3 -29332.7 -7.41409 
1395 1 15.647 4.754 3 6.02303 -129587 -122804 -87662.5 -3026.67 15777.3 -39484.5 -7.41474 
1396 1 14.925 3.533 3 6.02584 -123497 -127007 -99045.5 22485.3 4158.27 -33415.8 -7.414 
1397 1 15.622 2.298 3 6.02447 -126999 -125028 -91638.5 1333.06 11338 -39839.4 -7.4145 
1398 1 14.9 1.077 3 6.02431 -124574 -131589 -97525.3 25639.8 -2755.38 -36359.1 -7.41468 
1563 1 17.811 8.416 3 6.02444 -133777 -120049 -74576.6 -2721.06 17660.6 -34170.4 -7.41557 
1564 1 17.089 7.195 3 6.02172 -167926 -124492 -96026.8 20130.2 8083.22 -23574.3 -7.41486 
1565 1 17.786 5.96 3 6.02457 -142156 -135562 -79426.8 -15097.9 16442.8 -35523.5 -7.41538 
1566 1 17.065 4.739 3 6.02013 -134733 -159580 -95624.2 19183.2 3597.09 -27730.1 -7.41477 
1567 1 17.761 3.504 3 6.0246 -156148 -183746 -83902 -20374 13697.5 -35978.4 -7.41563 
1568 1 17.04 2.284 3 6.02072 -138923 -153996 -93932.1 -14068 -1843.06 -31154.8 -7.41516 
1569 1 17.736 1.048 3 6.02306 -138178 -127280 -88224.2 -26672.2 9633.58 -35405.2 -7.41499 
10626 2 10.547 8.703 6.4 6.02332 -142825 -148947 -96245.8 3647.54 27431 -35443.6 -7.41459 
10627 2 11.269 7.483 6.4 6.0202 -167429 -127107 -104285 36138.2 19416 -29929.6 -7.41428 
10628 2 10.572 6.247 6.4 6.02248 -141871 -133454 -100612 32325.6 23328.6 -37929.7 -7.41408 
10629 2 11.293 5.027 6.4 6.02303 -143884 -190075 -106443 19605.3 13183.6 -35038.5 -7.41462 
10630 2 10.597 3.792 6.4 6.02152 -147021 -150199 -104274 -14247.2 16823.2 -39258.4 -7.41408 
10631 2 11.318 2.571 6.4 6.023 -137949 -154005 -107262 1321.78 5398.25 -38908.5 -7.41447 
10632 2 10.622 1.336 6.4 6.02243 -143255 -150606 -107153 -13078 8162.95 -39344.3 -7.41423 
10633 2 11.343 0.115 6.4 6.02456 -143855 -160081 -106461 -1942.8 -3089.94 -41221.2 -7.41432 
10797 2 13.383 8.732 6.4 6.02597 -131032 -142378 -100090 14047.4 16906.1 -26348.9 -7.41414 
10798 2 12.686 7.497 6.4 6.023 -181549 -115977 -91841.6 -19743.8 23576.9 -37750 -7.4151 
10799 2 13.408 6.276 6.4 6.0234 -121010 -127845 -101921 342.951 12273 -32171.5 -7.41397 
10800 2 12.711 5.041 6.4 6.02429 -131545 -121132 -95958.5 -18862.7 19238 -39504.7 -7.41417 
10801 2 13.433 3.82 6.4 6.02447 -121488 -127269 -102393 4035.71 6144.91 -36883.8 -7.41394 
10802 2 12.736 2.585 6.4 6.02582 -128003 -122745 -99786.3 -18039.6 12686.3 -40033.6 -7.41408 
10803 2 13.458 1.364 6.4 6.02248 -123162 -124613 -101345 3828.99 -825.205 -40231.3 -7.41418 
10804 2 12.761 0.129 6.4 6.02485 -137460 -145891 -102543 -336.749 4685.79 -39269.9 -7.41414 
10968 2 14.801 8.746 6.4 6.0246 -159721 -179373 -83184 2261.74 22467.8 -35665.2 -7.41589 
10969 2 15.522 7.526 6.4 6.02219 -133882 -158211 -98007.2 38654.7 10433.5 -27040 -7.41484 
10970 2 14.826 6.29 6.4 6.02219 -146293 -150568 -87549.5 17217.6 20093.1 -37518.1 -7.41542 
10971 2 15.547 5.07 6.4 6.0246 -146152 -188049 -98206.1 22902.8 5834.62 -32226.8 -7.41507 
10972 2 14.851 3.835 6.4 6.02013 -142571 -153246 -91558.9 -16728.9 15588 -38333.9 -7.41521 
10973 2 15.572 2.614 6.4 6.02457 -142608 -153890 -97272.6 3403.96 272.429 -36222.8 -7.41459 
10974 2 14.876 1.379 6.4 6.02013 -141023 -154785 -95111.1 -16848.4 9486.54 -37998.9 -7.4149 
10975 2 15.597 0.158 6.4 6.02541 -136723 -147532 -95028.8 12251.5 -5733.62 -38781.5 -7.41455 
11139 2 17.637 8.775 6.4 6.02303 -120219 -128813 -95716.6 2309.45 7778.08 -20862.2 -7.41407 
11140 2 16.94 7.54 6.4 6.02447 -135561 -120864 -78793.6 -19283.4 19868.8 -34151.1 -7.41498 
11141 2 17.662 6.319 6.4 6.02169 -167885 -124684 -95267.1 5547.54 4360.1 -25940.4 -7.4149 
11142 2 16.965 5.084 6.4 6.02457 -141015 -135097 -83153.9 -6235.91 17393.5 -34876.6 -7.4153 
11143 2 17.686 3.863 6.4 6.02013 -136292 -157258 -94106.1 6435.51 51.8297 -30189 -7.41498 
11144 2 16.99 2.628 6.4 6.02457 -148039 -150960 -87709.9 -19747.8 13168.7 -34692.6 -7.41511 
11145 2 17.711 1.407 6.4 6.01957 -138108 -155067 -91387.2 5690.02 -4762.91 -33457.2 -7.41531 
11146 2 17.015 0.172 6.4 6.02306 -144891 -160776 -91187.1 -14240.6 7735.31 -33430.1 -7.41516 
1734 1 19.229 8.402 3 6.0246 -141944 -187749 -94396.3 4031.65 5489.7 -17288.6 -7.41547 
1735 1 19.925 7.167 3 6.02152 -145682 -152805 -71576.2 -4781.06 16893.4 -31147.6 -7.4163 
1736 1 19.204 5.946 3 6.02457 -138186 -154269 -93082.1 19885.6 2084.5 -21220.6 -7.41503 
1737 1 19.9 4.711 3 6.02013 -144568 -151653 -76386.6 -5377.8 15365.8 -31331.1 -7.41616 
1738 1 19.179 3.49 3 6.02457 -141620 -152944 -91081.9 21330.1 -2226.22 -24713.4 -7.41505 
1739 1 19.875 2.255 3 6.02243 -141526 -155330 -81192.1 -6225.56 12533.3 -30782.3 -7.41565 
1740 1 19.154 1.034 3 6.02516 -137604 -147254 -87988.2 12698.5 -7017.03 -27507.9 -7.41481 
1905 1 22.065 8.373 3 6.023 -183364 -119243 -63898.2 -1790.51 17296.3 -27231.1 -7.41637 
1906 1 21.343 7.152 3 6.0234 -119750 -125364 -92043.8 19164.3 152.245 -15105.9 -7.41449 
1907 1 22.04 5.917 3 6.02429 -130451 -122757 -69029.5 -3775.51 16835.5 -26885.5 -7.41588 
1908 1 21.318 4.696 3 6.02447 -120890 -125856 -89571.7 20325 -3286.78 -18264.6 -7.41463 
1909 1 22.015 3.461 3 6.02582 -128539 -124207 -74266.7 -3831.57 15107.2 -26144.3 -7.41546 
1910 1 21.293 2.24 3 6.02248 -122639 -126066 -86428 20316.4 -7282.97 -21025.6 -7.41477 
1911 1 21.99 1.005 3 6.02385 -128238 -132444 -79122.8 -9452.71 12304.3 -24751.2 -7.41522 
2076 1 23.482 8.359 3 6.0202 -165858 -123169 -91823.6 -13001.1 -1450.08 -10207.7 -7.41493 
2077 1 24.179 7.123 3 6.02248 -142133 -137180 -62038.9 -51803.2 18423.6 -23478.3 -7.41619 
2078 1 23.458 5.903 3 6.02303 -142809 -187536 -89068.3 3578.57 -4283.06 -12642.5 -7.41554 
2079 1 24.154 4.668 3 6.02152 -147530 -152902 -67847.5 -6186.26 17262.3 -22230 -7.41606 
2080 1 23.433 3.447 3 6.023 -137253 -152869 -85718.6 21553.7 -7690.8 -15124.7 -7.41563 
2081 1 24.129 2.212 3 6.02243 -143753 -152183 -73544.1 -8236.15 15229.5 -20688.3 -7.41606 
2082 1 23.408 0.991 3 6.02456 -141011 -160877 -81234.2 25909.4 -11209.4 -17381.7 -7.41589 
2247 1 26.318 8.33 3 6.0249 -150524 -149764 -55456.5 -3125.38 20425 -21924.2 -7.41708 
2248 1 25.597 7.109 3 6.0249 -136303 -151291 -89588.6 22468 -5066.11 -8920.63 -7.41519 
2249 1 26.293 5.874 3 6.023 -146678 -151102 -61328.9 -3098.42 19814.1 -19951.6 -7.41684 
2250 1 25.572 4.653 3 6.02243 -140135 -150812 -85967.5 19450.8 -8168.26 -10725.7 -7.41518 
2251 1 26.268 3.418 3 6.023 -143075 -153453 -67407.1 -5153.69 18148.8 -17959.9 -7.41642 
2252 1 25.547 2.197 3 6.0219 -133009 -137350 -81272.8 7044.76 -11494.3 -12675.9 -7.41522 
2253 1 26.244 0.962 3 6.02385 -175415 -128723 -73511.9 -8433.31 15678.1 -16020.4 -7.41609 
2418 1 27.736 8.316 3 6.02248 -127132 -137902 -90505.8 -28142.6 -5123.55 -7332.93 -7.41459 
2420 1 27.711 5.86 3 6.02332 -127085 -155612 -86751.5 3698.75 -8244.25 -8378.59 -7.41507 
2422 1 27.686 3.404 3 6.02426 -121532 -123174 -82080.9 21407.3 -11604.2 -9798.04 -7.41501 
2424 1 27.661 0.948 3 6.02428 -173650 -128243 -76623.8 26065.7 -14858.9 -11540.7 -7.41591 
11310 2 19.055 8.789 6.4 6.01928 -148696 -152194 -70923.4 16030.6 19197.6 -30316.9 -7.41611 
11311 2 19.776 7.569 6.4 6.02457 -137514 -172908 -93503.2 34504 2601.14 -19186.4 -7.41491 
11312 2 19.079 6.334 6.4 6.02172 -178481 -121499 -75149.9 -18680.7 18177.8 -30680.1 -7.41588 
11313 2 19.801 5.113 6.4 6.02441 -121321 -126441 -91863.5 5139.35 -860.552 -23361.9 -7.4145 
11314 2 19.104 3.878 6.4 6.02303 -129089 -123579 -79748.2 -18921.1 15638.6 -30435.5 -7.41517 
11315 2 19.826 2.657 6.4 6.02429 -121976 -126199 -89098.7 4205.94 -4865.71 -26819.6 -7.41478 
11316 2 19.129 1.422 6.4 6.0234 -126832 -124709 -84219.7 -18339 11762.1 -29418.7 -7.4149 
11317 2 19.851 0.201 6.4 6.02428 -175324 -131274 -85469.6 -369.321 -8845.49 -29340.7 -7.41533 
11481 2 21.89 8.818 6.4 6.02243 -132501 -156071 -92932.2 6438.44 1113.75 -13026.6 -7.41502 
11482 2 21.194 7.583 6.4 6.02457 -150127 -148808 -67463.9 -18372.8 18495.3 -26788.1 -7.41656 
11483 2 21.915 6.362 6.4 6.02152 -134154 -154189 -90911.1 6318.02 -1805.97 -16674.9 -7.41535 
11484 2 21.219 5.127 6.4 6.02457 -145937 -151007 -72477.8 -20670.8 17229.9 -26095.9 -7.41637 
11485 2 21.94 3.906 6.4 6.02152 -136955 -155954 -87903 7977.45 -5227.62 -19974.7 -7.41518 
11486 2 21.244 2.671 6.4 6.02303 -150885 -186694 -77393.4 -3231.96 14603.8 -24891.4 -7.41619 
11487 2 21.965 1.451 6.4 6.02248 -134660 -138297 -84007.7 52133.2 -8948.05 -22667.7 -7.41508 
11488 2 21.268 0.215 6.4 6.02235 -168624 -96228 -82202.4 -533.622 11097.2 -23317.7 -7.4153 
11652 2 23.308 8.833 6.4 6.02303 -132475 -123842 -60153.8 -19652.4 18839.9 -24126.7 -7.41611 
11653 2 24.03 7.612 6.4 6.02426 -118359 -125084 -90671 3618.94 -2695.4 -11341.4 -7.41455 
11654 2 23.333 6.377 6.4 6.0234 -132194 -121754 -65502 -18714.9 18676.1 -22715.3 -7.41595 
11655 2 24.055 5.156 6.4 6.02426 -167723 -121583 -87724.7 4033.48 -5750.08 -14100.8 -7.41541 
11656 2 23.358 3.921 6.4 6.02246 -139815 -136209 -70798.5 -6908.47 17063.1 -21196.6 -7.41584 
11657 2 24.079 2.7 6.4 6.02444 -138702 -155514 -83718 3571.59 -9070.87 -16598.1 -7.41528 
11658 2 23.383 1.465 6.4 6.02597 -145540 -152588 -76283.3 -21183.1 14480.6 -19425.2 -7.41567 
11659 2 24.104 0.244 6.4 6.02596 -139108 -160501 -78979.9 3998.89 -12354.6 -18838.5 -7.41626 
11823 2 26.144 8.861 6.4 6.02243 -136507 -150726 -91713.2 5252.25 -2665.04 -7957.61 -7.41486 
11824 2 25.448 7.626 6.4 6.023 -148071 -151847 -58735.9 -20892.4 20018.3 -20929.5 -7.4169 
11825 2 26.169 6.405 6.4 6.02152 -127720 -139491 -88482.2 18099.4 -5776.62 -9912.91 -7.41473 
11826 2 25.472 5.17 6.4 6.02193 -186497 -152067 -64360.7 -4643.01 19199.3 -18804.6 -7.4169 
11827 2 26.194 3.95 6.4 6.02159 -120524 -125155 -84234.5 39440.7 -9214.09 -11958.3 -7.41476 
11828 2 25.497 2.714 6.4 6.02159 -127079 -124867 -70305.7 12674.6 17388 -16741.4 -7.41554 
11829 2 26.219 1.494 6.4 6.02332 -130346 -157335 -79084.9 21305.4 -12541.3 -13978.1 -7.41547 
11830 2 25.522 0.259 6.4 6.02395 -127170 -131117 -75875.5 -15235.1 14709.2 -14668.3 -7.41537 
11994 2 27.562 8.876 6.4 6.02152 -151938 -151108 -51906.4 -19824.2 21890.7 -21160.9 -7.41693 
11996 2 27.587 6.42 6.4 6.02243 -148633 -149638 -58056.8 -17977.2 21560.4 -18351.3 -7.41693 
11998 2 27.612 3.964 6.4 6.0249 -144018 -150789 -64339.4 -24722.6 20114.3 -15790.6 -7.4168 
12000 2 27.637 1.508 6.4 6.023 -141949 -153664 -70687.4 -22561.1 17750.1 -13515.5 -7.41607 
2417 1 28.457 9.536 3 6.02172 -156728 -184865 -48755.8 -22553.4 22980.8 -22392.3 -7.41776 
2419 1 28.433 7.08 3 6.02159 -130907 -122384 -54952.5 -39305.5 22677.2 -19627.9 -7.41659 
2421 1 28.408 4.625 3 6.02447 -127159 -125599 -61650.2 -5779.1 21272.4 -17131.6 -7.41601 
2423 1 28.383 2.169 3 6.0234 -126288 -123298 -68208.4 -6884.55 18979.2 -14868.9 -7.41574 
2588 1 29.875 9.522 3 6.02426 -116109 -119719 -91341 19496.8 -4360.08 -8008.88 -7.41482 
2589 1 30.572 8.287 3 6.02353 -142372 -136310 -48205.8 -19948.8 25938.5 -21337.7 -7.41707 
2590 1 29.851 7.066 3 6.02444 -134691 -152710 -87716.9 20900.1 -7554.4 -8229 -7.41503 
2591 1 30.547 5.831 3 6.02597 -151331 -150496 -55302.7 -2900.81 24719.5 -18247.6 -7.41662 
2592 1 29.826 4.61 3 6.02243 -134696 -150469 -83262.8 18417.4 -11096.9 -8998.44 -7.41573 
2593 1 30.522 3.375 3 6.02457 -144185 -150244 -62401.1 -6102.02 22421.8 -15576.1 -7.4168 
2594 1 29.801 2.154 3 6.02096 -136562 -151220 -77983.5 18790.9 -14702.9 -10241.8 -7.41599 
2595 1 30.497 0.919 3 6.02346 -142134 -159605 -69515.7 -8504.87 19378.8 -13321.6 -7.41639 
2759 1 32.711 9.493 3 6.02457 -150960 -150937 -41113.7 -5748.69 29555.6 -24766.5 -7.41787 
2760 1 31.99 8.272 3 6.02152 -132598 -151856 -88644.6 15855 -6189.55 -10197.2 -7.41509 
2761 1 32.686 7.037 3 6.02303 -153701 -184196 -48759 -21395.1 28538.2 -21205.2 -7.41796 
2762 1 31.965 5.817 3 6.02219 -137619 -150678 -84323 -15233.4 -9957.27 -10284.4 -7.41511 
2763 1 32.661 4.581 3 6.01928 -142394 -154931 -56255.8 -38926.1 26346.7 -18149.6 -7.41688 
2764 1 31.94 3.361 3 6.02457 -139200 -168072 -78947.6 -10212 -13902.7 -10946.6 -7.41566 
2765 1 32.637 2.126 3 6.02172 -173052 -120739 -63679.8 -4271.71 23163.6 -15619.1 -7.41655 
2766 1 31.915 0.905 3 6.02389 -118083 -96786.3 -72792 6826.74 -17872.4 -12249.1 -7.41519 
2930 1 34.129 9.479 3 6.02597 -126403 -135679 -89072.7 5007.8 -4160.97 -13511.6 -7.41478 
2931 1 34.826 8.244 3 6.02303 -131491 -122540 -41043.5 -5004.37 32362.6 -25450.3 -7.41749 
2932 1 34.104 7.023 3 6.02584 -116811 -121995 -85140.1 19057.1 -8226.25 -13251.8 -7.41494 
2933 1 34.801 5.788 3 6.02447 -128689 -124280 -49232.3 -4474.29 30362.4 -22159.4 -7.41682 
2934 1 34.079 4.567 3 6.02303 -120774 -123147 -80145.9 20920.7 -12565.1 -13475.6 -7.41485 
2935 1 34.776 3.332 3 6.02447 -128588 -123984 -57433.7 -1978.46 27182.5 -19407.7 -7.41611 
2936 1 34.054 2.111 3 6.02299 -168869 -120231 -74116.1 18134 -16981.4 -14305.6 -7.41597 
2937 1 34.751 0.876 3 6.02487 -134581 -144303 -65116.9 -18100 23084.4 -17203.7 -7.41638 
3101 1 36.965 9.45 3 6.02597 -142318 -138998 -32595 -16277.6 36089.4 -30279.8 -7.41807 
3102 1 36.244 8.229 3 6.02013 -131043 -153021 -85031.4 16023.4 -5884.46 -17180.5 -7.4154 
3103 1 36.94 6.994 3 6.02457 -149822 -152507 -41490.7 -2314.15 34397.5 -26976.3 -7.41762 
3104 1 36.219 5.773 3 6.02013 -131150 -153797 -80367.4 16667.7 -10492.1 -17073.9 -7.41574 
3105 1 36.915 4.538 3 6.0246 -152371 -185391 -50213.3 -21258 31382 -24098.9 -7.41766 
3106 1 36.194 3.318 3 6.02219 -134105 -153073 -74770.4 -16299 -15385.9 -17469.8 -7.41604 
3107 1 36.89 2.082 3 6.02338 -139899 -152605 -58446.7 -36430.5 27134.2 -21728.5 -7.41705 
3108 1 36.169 0.862 3 6.02462 -141604 -158568 -68427.5 -13174.2 -20315.6 -18536.8 -7.41633 
11995 2 28.283 7.655 6.4 6.023 -132697 -151097 -89176.3 3205.4 -5161.76 -7911.68 -7.41541 
11997 2 28.308 5.199 6.4 6.02457 -135374 -151487 -85133.7 1918.38 -8693.75 -9318.14 -7.41551 
11999 2 28.333 2.743 6.4 6.0249 -138879 -150977 -80191.6 2352.48 -12382.8 -10965.5 -7.4157 
12001 2 28.358 0.287 6.4 6.0223 -135746 -144639 -74444.5 14303.9 -15924.3 -12826 -7.41564 
12165 2 30.398 8.904 6.4 6.02447 -116004 -122392 -90371.9 3804.61 -3870.73 -8306.16 -7.41454 
12166 2 29.701 7.669 6.4 6.02581 -132633 -122245 -51356.7 -21829.8 24146.5 -19959.3 -7.41671 
12167 2 30.423 6.448 6.4 6.02303 -116105 -125208 -86517.6 3944.52 -7655.18 -8957.84 -7.41463 
12168 2 29.726 5.213 6.4 6.02332 -138309 -154504 -58257.6 -3341.91 23016.8 -16842.6 -7.41664 
12169 2 30.448 3.993 6.4 6.0202 -167372 -121311 -81574.4 37308.1 -11708.2 -10037 -7.41547 
12170 2 29.751 2.757 6.4 6.02248 -137341 -137274 -65157.1 26230.3 20908.5 -14168.7 -7.41599 
12171 2 30.472 1.537 6.4 6.02303 -144558 -186300 -75957.1 21340.8 -15636.9 -11439.7 -7.41621 
12172 2 29.776 0.302 6.4 6.02265 -143364 -158212 -71792.1 -13408.7 18062.4 -11934 -7.41617 
12336 2 31.816 8.919 6.4 6.02013 -148184 -150656 -44422.6 -19157.1 27224.4 -23272.8 -7.4179 
12337 2 32.537 7.698 6.4 6.02457 -135993 -149020 -87420.8 2232.77 -5834.34 -10659.1 -7.41519 
12338 2 31.841 6.463 6.4 6.02243 -145497 -152647 -51817.1 -18695.1 26326 -19699.8 -7.41726 
12339 2 32.562 5.242 6.4 6.026 -130932 -136194 -82664.7 13539.9 -10265.5 -11124.5 -7.41491 
12340 2 31.865 4.007 6.4 6.023 -178104 -120101 -59137.8 -22720.1 24338.6 -16685.9 -7.4166 
12341 2 32.587 2.786 6.4 6.0234 -120810 -122375 -77087 5102.1 -14778.3 -12099.1 -7.41525 
12342 2 31.89 1.551 6.4 6.02428 -124625 -122954 -66052.6 -20709.6 21442.2 -14163 -7.41598 
12343 2 32.612 0.33 6.4 6.02194 -124016 -131470 -70607.7 94.2465 -19226.2 -13602.3 -7.41564 
12507 2 34.651 8.947 6.4 6.02013 -128990 -155177 -87872.7 3538.59 -3480.68 -13828 -7.41512 
12508 2 33.955 7.712 6.4 6.0246 -159341 -183128 -44361.7 -2983.15 29818.2 -24012.5 -7.41778 
12509 2 34.676 6.492 6.4 6.02072 -131561 -152551 -83485.7 36405.2 -8195 -13953.1 -7.41556 
12510 2 33.98 5.256 6.4 6.02219 -145806 -152378 -52295.9 16250.3 27893.7 -20649.7 -7.4171 
12511 2 34.701 4.036 6.4 6.0246 -141903 -183973 -78262.3 19316.5 -13239.9 -14537.6 -7.4163 
12512 2 34.005 2.801 6.4 6.02152 -139673 -153781 -60056 -18335.4 24927.6 -17912.7 -7.41688 
12513 2 34.726 1.58 6.4 6.02457 -138471 -151556 -71972.8 3852.67 -18307.9 -15597.2 -7.4161 
12514 2 34.03 0.345 6.4 6.02069 -139970 -161023 -67505.4 -13022.2 21216.7 -15762.9 -7.41639 
12678 2 36.069 8.962 6.4 6.02303 -132368 -124793 -36129 -18275.9 33508 -29091.8 -7.41756 
12679 2 36.791 7.741 6.4 6.02447 -117852 -124353 -83677.8 -893.613 -5844.72 -17887.1 -7.41464 
12680 2 36.094 6.506 6.4 6.02447 -131663 -125111 -44674.3 -21429.1 31773.5 -25658.3 -7.41683 
12681 2 36.816 5.285 6.4 6.02303 -117355 -124034 -78701.2 2419.01 -11134.6 -18105.2 -7.41516 
12682 2 36.119 4.05 6.4 6.02444 -127327 -123329 -53191.8 -18533.9 28840.9 -22660.1 -7.41671 
12683 2 36.841 2.829 6.4 6.02172 -167540 -121127 -72822.5 2492.77 -16627.5 -18731.6 -7.41607 
12684 2 36.144 1.594 6.4 6.02401 -135136 -137511 -61217.2 -6333.51 24900.5 -20284.4 -7.4163 
12685 2 36.865 0.373 6.4 6.01844 -138014 -162838 -66118.1 -567.365 -22075 -19934.5 -7.41647 
3272 1 38.383 9.436 3 6.0246 -141019 -184434 -84741.7 -1249.26 -3425.54 -21207 -7.41573 
3273 1 39.079 8.201 3 6.02013 -144089 -157804 -32726.6 -3026.09 38080.8 -31604 -7.41842 
3274 1 38.358 6.98 3 6.02457 -136770 -151385 -80429.3 17756.8 -8106.06 -21082.2 -7.41544 
3275 1 39.054 5.745 3 6.02013 -142630 -156826 -42099.9 -3462.81 35396.2 -28918.7 -7.41779 
3276 1 38.333 4.524 3 6.02457 -128685 -137229 -74960.6 4908.98 -13302.6 -21385.9 -7.41569 
3277 1 39.03 3.289 3 6.02169 -173184 -123333 -50757.7 -2245.78 31402.8 -26707.3 -7.4173 
3278 1 38.308 2.068 3 6.02447 -122326 -125453 -68623.5 18775.9 -18738.9 -22118.5 -7.41544 
3279 1 39.005 0.833 3 6.02357 -124276 -134276 -59023.6 -1452.31 26322.6 -24873 -7.41628 
3443 1 41.219 9.407 3 6.02426 -180992 -126269 -22839.7 1896.6 41090.4 -35642.2 -7.41876 
3444 1 40.497 8.186 3 6.0234 -116446 -125454 -79394.3 14978.7 -5741.3 -24802.2 -7.41513 
3445 1 41.194 6.951 3 6.02426 -129047 -128938 -32761.6 242.774 39090.7 -33294.3 -7.41774 
3446 1 40.472 5.73 3 6.02303 -116977 -126240 -74381.4 15791.1 -10956.6 -25065.6 -7.4154 
3447 1 41.169 4.495 3 6.02441 -126837 -127919 -42319.9 -662.617 35465.7 -31195.7 -7.41719 
3448 1 40.447 3.274 3 6.02172 -165428 -125778 -68556.3 16028.9 -16580.1 -25630.9 -7.41618 
3449 1 41.144 2.039 3 6.02401 -141636 -174308 -51289 -30026.5 30528.9 -29446.9 -7.41717 
3450 1 40.423 0.819 3 6.01984 -136757 -166463 -61922.5 -13759.3 -22382.2 -26593.6 -7.41657 
3614 1 42.636 9.393 3 6.02193 -171882 -157283 -78159 290.971 -3521.69 -27327.1 -7.4161 
3615 1 43.333 8.158 3 6.02152 -138826 -146504 -22713.5 -13390.2 42024.5 -36170.4 -7.41838 
3616 1 42.612 6.937 3 6.023 -131750 -157992 -73517.5 16246.8 -8429.53 -27795.8 -7.41604 
3617 1 43.308 5.702 3 6.02243 -144091 -158096 -32930.3 -2596.88 39030.3 -34545.5 -7.41831 
3618 1 42.587 4.481 3 6.02457 -133110 -156330 -67749 16381.7 -14159.2 -28456.1 -7.41657 
3619 1 43.283 3.246 3 6.02152 -138940 -158298 -42568.6 -798.771 34484.5 -33095.4 -7.41798 
3620 1 42.562 2.025 3 6.02457 -137724 -156745 -61341.7 16280.7 -20300.7 -29334.4 -7.41656 
3621 1 43.258 0.79 3 6.02394 -138420 -166052 -51339.9 -46.8578 28744.7 -31828.6 -7.41751 
3785 1 45.472 9.364 3 6.02597 -147519 -161799 -12113.7 3442.03 44026.2 -37385.5 -7.41947 
3786 1 44.751 8.143 3 6.02243 -133386 -157483 -72088.9 12825 -6392.5 -29170.4 -7.41613 
3787 1 45.447 6.908 3 6.023 -142319 -162490 -22961.9 1391.1 41956.3 -36266.9 -7.419 
3788 1 44.726 5.687 3 6.02246 -127567 -143219 -66582.8 1455.2 -11787.2 -30028.2 -7.41604 
3789 1 45.423 4.452 3 6.02426 -173471 -129417 -33001.1 2597.8 38135.3 -35212.2 -7.4183 
3790 1 44.701 3.231 3 6.0234 -117227 -132514 -60328.7 13394.3 -17964.2 -30903.4 -7.41606 
3791 1 45.398 1.996 3 6.02331 -129861 -165484 -42257.6 -14902.6 32872 -34183 -7.41749 
3792 1 44.676 0.776 3 6.02271 -122411 -138155 -53161.9 -14667.4 -24359.4 -32024.1 -7.41659 
12849 2 38.905 8.991 6.4 6.02219 -132269 -154108 -83253.9 37102.4 -3259.67 -21904.8 -7.41537 
12850 2 38.209 7.755 6.4 6.02072 -145254 -155672 -36374.8 16130.1 35575.7 -30617.3 -7.41821 
12851 2 38.93 6.535 6.4 6.0246 -144233 -184905 -78708.9 17855.4 -8584.74 -22138.7 -7.41585 
12852 2 38.234 5.3 6.4 6.02013 -141253 -158261 -45262.9 -16457 32828.5 -27768.3 -7.41749 
12853 2 38.955 4.079 6.4 6.02457 -129212 -138453 -72956.5 13091.9 -14431.9 -22617.6 -7.41567 
12854 2 38.258 2.844 6.4 6.02172 -173255 -122328 -53527.9 -17078.6 28887.3 -25344.3 -7.41714 
12855 2 38.98 1.623 6.4 6.02441 -120680 -125822 -66376.5 1112.53 -20488.6 -23522.3 -7.41581 
12856 2 38.283 0.388 6.4 6.02357 -123973 -133226 -61485.5 -12342.9 24094.8 -23423.2 -7.41613 
13020 2 40.323 9.005 6.4 6.02493 -142666 -141086 -26540.3 -8279 39118.9 -35156.9 -7.41829 
13021 2 41.044 7.784 6.4 6.02338 -130996 -156905 -77806.6 -2790.09 -6060.59 -25850.2 -7.4158 
13022 2 40.348 6.549 6.4 6.02597 -149791 -154827 -36203.5 -19268.9 36700.6 -32497.4 -7.4178 
13023 2 41.069 5.328 6.4 6.02013 -131932 -155109 -72634.7 1623.92 -11934.2 -26363.3 -7.4163 
13024 2 40.373 4.093 6.4 6.02457 -143787 -154854 -45420.1 -15727 32875.4 -30119 -7.41761 
13025 2 41.094 2.872 6.4 6.02243 -135975 -154815 -66346.7 3256.49 -18235.1 -27016.5 -7.41643 
13026 2 40.398 1.637 6.4 6.02257 -138395 -155618 -54178.6 -17164.6 28017.7 -28114.4 -7.4173 
13027 2 41.119 0.416 6.4 6.02122 -141845 -162954 -59353.9 -2754.37 -24574.6 -27971.3 -7.41663 
13191 2 43.159 9.034 6.4 6.02159 -115485 -129781 -76555.8 35003 -4024.41 -28528.6 -7.41516 
13192 2 42.462 7.798 6.4 6.02159 -129157 -131450 -26397.5 17678 40200.5 -36051.7 -7.41797 
13193 2 43.184 6.578 6.4 6.02332 -124168 -161608 -71641 16194.9 -9544.7 -29275.1 -7.41588 
13194 2 42.487 5.343 6.4 6.02447 -125231 -132079 -36134.1 -15320.5 36851.6 -33994.9 -7.41742 
13195 2 43.209 4.122 6.4 6.02426 -117948 -127386 -65727.9 -1103.45 -15769.5 -29973.1 -7.4161 
13196 2 42.512 2.887 6.4 6.02353 -134199 -142694 -45429.4 -912.615 32133.6 -32128 -7.41721 
13197 2 43.233 1.666 6.4 6.02169 -133573 -159711 -59090.5 -507.909 -22253 -30788.1 -7.41694 