ITEM: TIMESTEP
176
ITEM: NUMBER OF ATOMS
12152
ITEM: BOX BOUNDS pp pp pp
0.0000000000000000e+00 9.5721004899999997e+01
0.0000000000000000e+00 1.6579364400000000e+02
0.0000000000000000e+00 1.5000000000000000e+01
ITEM: ATOMS id type x y z c_csym c_2[1] c_2[2] c_2[3] c_2[4] c_2[5] c_2[6] c_3 
152 1 0.873364 8.58019 2.91532 6.01305 -173806 -140339 -3603.01 -32811.9 16556.6 -2375.63 -7.41563 
153 1 0.142754 7.36533 2.9111 6.01696 -148010 -162271 3716.12 -27405.1 26780.3 -2524.57 -7.41626 
154 1 0.828822 6.12445 2.90677 6.01323 -170725 -142894 -1331.67 -22014 19352.8 -3144.86 -7.41557 
155 1 0.0970482 4.91022 2.90229 6.0198 -150286 -161444 1130.5 -15310.8 23034 -1765.67 -7.41571 
156 1 0.782029 3.66881 2.89853 6.01697 -165425 -147087 -647.83 -9685.13 16052 -3935.41 -7.41541 
157 1 0.0491967 2.45514 2.89517 6.02424 -152728 -159111 -550.317 -4406.16 13299.7 -723.099 -7.41535 
158 1 0.733414 1.21336 2.89334 6.02493 -159003 -152754 -943.543 -1667.93 6345.91 -4173.68 -7.41526 
159 1 -1.18176e-06 -3.16867e-06 2.8924 6.02961 -155739 -155830 -1089.64 -21.3014 0.076335 -0.93503 -7.41523 
288 1 2.29087 8.55242 2.91604 6.01204 -165415 -144411 4248.02 -27430.6 25599.9 -4757.79 -7.4165 
289 1 2.9768 7.31135 2.91283 6.01444 -187865 -125307 -768.752 -25635.9 16172.9 -10946.3 -7.41582 
290 1 2.24631 6.09634 2.90793 6.01317 -164908 -146828 1587.38 -15720.9 24622.2 -7401.81 -7.41594 
291 1 2.9313 4.85484 2.90495 6.01471 -180104 -132278 422.023 -12863.3 16486.5 -13647.7 -7.41569 
292 1 2.19951 3.64053 2.90009 6.01631 -162161 -150239 -156.997 -2787.96 17842.5 -9371.86 -7.41552 
293 1 2.88378 2.39873 2.89854 6.02012 -168674 -143122 150.813 -1963.61 10771.5 -15257.2 -7.4155 
294 1 2.15091 1.18503 2.89516 6.02071 -157919 -154125 -825.335 5444.03 5961.82 -10638.9 -7.41531 
423 1 5.12352 8.49977 2.91924 6.01178 -200418 -110553 1049.12 -25602.3 11113.7 -15077.6 -7.41625 
424 1 4.39421 7.28401 2.91493 6.00743 -179739 -132344 510.034 -12626.4 21876.1 -8322.34 -7.41607 
425 1 5.07928 6.04248 2.91293 6.01326 -193348 -117810 2511.06 -12429.9 14039 -19014.1 -7.41618 
426 1 4.34872 4.82739 2.90793 6.01039 -174832 -138503 -809.925 1978.21 18302.3 -12847.7 -7.41568 
427 1 5.03314 3.58563 2.90681 6.01736 -180789 -130423 2295.76 941.812 12395 -22096.6 -7.41597 
428 1 4.30124 2.37128 2.90228 6.01434 -166061 -146938 -918.508 13878.6 9545.36 -16456.4 -7.41548 
429 1 4.98545 1.12951 2.90298 6.01675 -164368 -147512 867.772 8871.16 5773.45 -22837.8 -7.41571 
558 1 6.54089 8.47333 2.9215 6.00591 -189770 -121787 -2175.68 -9099.72 16420 -5806.47 -7.41605 
559 1 7.22617 7.23187 2.9204 6.00907 -200469 -107818 5473.25 -11119 10144.5 -20095.2 -7.41675 
560 1 6.49665 6.01612 2.91616 6.00761 -185399 -128290 -3061.58 6942.39 15060.6 -11345.4 -7.41574 
561 1 7.18137 4.77447 2.91546 6.01336 -189959 -119328 5215.52 4171.77 11543.8 -23616.1 -7.41657 
562 1 6.45054 3.55941 2.91105 6.01164 -176094 -138189 -2424.87 22181.4 9700.01 -16422.5 -7.4156 
563 1 7.135 2.31776 2.91154 6.01477 -174320 -136550 3283.79 16098.3 8834.08 -25428.8 -7.41624 
564 1 6.40293 1.1034 2.90791 6.01382 -162737 -150490 -567.816 30998.9 753.376 -20262.3 -7.41568 
693 1 9.37238 8.42268 2.92655 6.0075 -200749 -104075 9174.97 -11102.4 6736.47 -19074.8 -7.41732 
694 1 8.64354 7.20649 2.92316 6.00878 -189718 -122477 -6611.75 9688.39 9995.49 -7292.08 -7.41568 
695 1 9.32872 5.96507 2.92272 6.01086 -192892 -113271 8750.38 5461.54 9718.91 -21509.2 -7.41718 
696 1 8.59875 4.74945 2.91908 6.0119 -182548 -131415 -5440.17 27279.1 7105.67 -12280.2 -7.41561 
697 1 9.28362 3.508 2.91932 6.01397 -180586 -127644 6446.8 20486 9920.04 -23294.8 -7.41684 
698 1 8.55243 2.29304 2.91598 6.01511 -170624 -143318 -2688.8 40522.2 1252.45 -16730.8 -7.41574 
699 1 9.23738 1.05177 2.91737 6.00824 -164288 -146591 2649.19 29178.5 6801.58 -23079.3 -7.41639 
6096 2 0.544136 8.60648 6.48454 6.01338 -140550 -168557 5215.11 32640.9 26224.1 1810.09 -7.41657 
6097 2 0.588685 6.15164 6.49319 6.0174 -143790 -167389 2295.63 22252.5 25333.3 312.979 -7.41597 
6098 2 0.635472 3.6968 6.50146 6.02004 -147754 -164119 150.695 10133 18598.2 -1699.77 -7.4155 
6099 2 0.68409 1.24184 6.50666 6.02494 -152832 -158882 -943.397 1894.46 6786.78 -3409.94 -7.41526 
6100 2 -2.19169e-06 1.24497e-06 6.5076 6.02961 -155810 -155844 -1090.02 10.9875 0.141191 -0.809814 -7.41523 
6228 2 1.96179 8.63433 6.48384 6.00764 -148613 -165063 -3061.27 28183.1 17355.9 -7371.25 -7.41574 
6229 2 2.6933 7.42003 6.48707 6.01324 -125997 -185192 2511.38 26430.4 23486 -2651.72 -7.41618 
6230 2 2.00629 6.1798 6.49207 6.01043 -149316 -164075 -810.142 16742.6 20277.5 -9426.72 -7.41568 
6231 2 2.73878 4.966 6.49505 6.01479 -133036 -179340 421.403 14317.3 20061.2 -7454.83 -7.4157 
6232 2 2.05304 3.7251 6.49991 6.01622 -150682 -161584 -156.429 3797.45 17036.9 -10767 -7.41552 
6233 2 2.78627 2.51167 6.50147 6.01689 -143152 -169195 -647.843 3105.5 11433.4 -11934.7 -7.41541 
6234 2 2.10161 1.27018 6.50483 6.02424 -153653 -158071 -550.205 -4980.59 7275.15 -11157.4 -7.41535 
6235 2 2.83502 0.0567908 6.50396 6.02055 -155760 -156229 -590.532 -1856.13 -222.011 -14774.4 -7.41536 
6363 2 4.79926 8.68698 6.48076 6.01178 -110852 -200135 1049.97 26037.4 18615 -2085.56 -7.41625 
6364 2 4.11103 7.44751 6.48508 6.00744 -133341 -178865 509.566 14173.1 18145.8 -14784.1 -7.41607 
6365 2 4.84342 6.23366 6.48717 6.01444 -118677 -194423 -768.985 14277 17565.5 -8533.49 -7.41582 
6366 2 4.15644 4.99353 6.49207 6.01323 -137703 -174027 1587.36 23.2168 18721 -17622.9 -7.41594 
6367 2 4.88953 3.78001 6.49323 6.01331 -130803 -182810 -1331.78 1149.11 12399 -15188.4 -7.41557 
6368 2 4.20385 2.53916 6.49771 6.01979 -145240 -166262 1130.75 -12436.8 13045.1 -19066.3 -7.41571 
6369 2 4.93719 1.32569 6.49703 6.01321 -146724 -166267 -661.052 -8012.53 3675.56 -20411.1 -7.41554 
6370 2 4.25253 0.0842503 6.49991 6.01677 -155530 -156734 -49.4436 -17982.8 2315.98 -18659 -7.41551 
6498 2 6.21709 8.71363 6.4788 6.00723 -120593 -188857 2982.38 10151.9 13566 -16587.2 -7.41656 
6499 2 6.94926 7.49964 6.48008 6.01678 -108911 -203902 -3498.83 12426.6 12939.6 -5856.81 -7.41583 
6500 2 6.26118 6.26017 6.48396 6.01206 -125857 -183967 4249.24 -4606.8 16919.7 -19791.5 -7.4165 
6501 2 6.99399 5.04646 6.48468 6.01299 -120444 -193900 -3603.23 -1918.86 10335.1 -13150.9 -7.41563 
6502 2 6.3072 3.8063 6.4889 6.01698 -135039 -175369 3717.01 -19866.7 15576.4 -21930.3 -7.41626 
6503 2 7.04033 2.59268 6.48845 6.00948 -136330 -177609 -2156.58 -14344.3 4686.17 -19821 -7.41566 
6504 2 6.35475 1.35183 6.49205 6.01523 -147984 -163615 1805.22 -30031.8 8929.69 -22195.5 -7.41594 
6505 2 7.08766 0.137984 6.48995 6.00964 -155265 -157259 440.991 -19943.2 -2617.24 -24241 -7.41589 
6633 2 9.05592 8.76424 6.47491 6.01874 -105380 -205664 -7272.61 11083.8 8493.56 -1926.89 -7.41574 
6634 2 8.36709 7.52522 6.47737 6.01197 -119057 -187919 7631.51 -7972.89 12978 -19079.6 -7.41708 
6635 2 9.09945 6.31121 6.47765 6.01461 -115115 -198019 -7148.23 -3849.01 7054.82 -8178.43 -7.41559 
6636 2 8.41173 5.0716 6.48082 6.01327 -127466 -180448 6976.28 -24811.4 14886.9 -20750.2 -7.41689 
6637 2 9.14449 3.85772 6.48052 6.0089 -128697 -184917 -5167.06 -18592.9 3627.95 -14722.3 -7.41566 
6638 2 8.45796 2.61745 6.48379 6.01141 -139876 -169699 4519.08 -38681.5 12473.2 -21206.8 -7.41651 
6639 2 9.19071 1.40346 6.4825 6.0063 -145849 -166867 -1622.2 -28330.8 -1559.74 -20105.3 -7.41595 
6640 2 8.50518 0.162601 6.48508 6.01321 -155199 -156707 960.676 -44786.7 6232.71 -19877.4 -7.41608 
828 1 10.7898 8.39799 2.92873 6.01143 -187631 -121295 -10876.2 9425.6 5347.49 -3737.48 -7.41557 
829 1 11.4756 7.15688 2.92827 6.01114 -190232 -113042 12746.7 4100.83 8600.75 -18906.8 -7.41773 
830 1 10.7461 5.94094 2.92529 6.01441 -182684 -128850 -9425.34 28122.5 3527.44 -7214.77 -7.41553 
831 1 11.4316 4.69978 2.92518 6.01327 -181530 -123747 10161.7 21024.1 10379.8 -19320.8 -7.41741 
832 1 10.701 3.48438 2.92251 6.01788 -174274 -138411 -6107.4 44449.6 -100.347 -10905.9 -7.4157 
833 1 11.3864 2.24329 2.92322 6.00893 -169461 -138352 5773.84 33619.8 9489.61 -19037.1 -7.41692 
834 1 10.6549 1.02843 2.92116 6.0137 -162241 -149571 -1464.38 53705.4 -5365.48 -14229 -7.41608 
963 1 13.6221 8.3494 2.93283 6.01311 -185280 -116327 17022.7 1001.98 9227.85 -18606.3 -7.41819 
964 1 12.893 7.1333 2.92993 6.0169 -177582 -129809 -13876.9 25791 836.674 -4180.34 -7.41543 
965 1 13.5791 5.89248 2.92933 6.01375 -178455 -124742 14197.8 18650.1 11514.8 -16749.9 -7.4179 
966 1 12.849 4.67684 2.92705 6.0193 -172588 -137241 -10275.8 43587.3 -1829.36 -6065.71 -7.4156 
967 1 13.5348 3.43601 2.92713 6.00943 -170178 -134751 9490.99 33930 11806.9 -15237.5 -7.41741 
968 1 12.8038 2.22081 2.92559 6.0145 -164959 -144991 -5014.07 56588.9 -5639.26 -8401.78 -7.41597 
969 1 13.4897 0.980089 2.92662 6.00649 -160071 -146785 3338.24 42617.6 9670.69 -13414.1 -7.4168 
1098 1 15.0396 8.3262 2.93405 6.01867 -170808 -131411 -18554.2 23111.2 227.703 -4668.24 -7.41539 
1099 1 15.7264 7.08573 2.93288 6.01434 -174938 -127796 18437.2 16032.6 13945.4 -17636.1 -7.41831 
1100 1 14.9966 5.86995 2.93031 6.02043 -167090 -138477 -14838.5 40872.2 -2507.91 -4497.03 -7.4155 
1101 1 15.683 4.62941 2.92977 6.00906 -168391 -135317 13496.2 32467.8 14696.7 -14219.3 -7.41784 
1102 1 14.9523 3.41403 2.92832 6.01505 -163124 -143945 -9253.21 55865.2 -5868.15 -5103.92 -7.41583 
1103 1 15.6385 2.17348 2.92882 6.0061 -161728 -142858 7015.43 44387.6 13145.5 -11466.7 -7.41723 
1104 1 14.9072 0.958408 2.92834 6.00898 -157942 -148464 -2400.35 64339.3 -9690.47 -6591.02 -7.41636 
1233 1 17.8733 8.27963 2.93718 6.01318 -175090 -129424 23091 15854.8 17359.9 -22045.7 -7.41873 
1234 1 17.1439 7.06363 2.93366 6.02052 -161839 -139471 -19662.6 39722.7 -1429.15 -6642.03 -7.41547 
1235 1 17.8309 5.82339 2.93253 6.00697 -167632 -136917 17778.2 32512.7 18447.9 -16913.9 -7.41824 
1236 1 17.1005 4.60785 2.93042 6.01423 -159015 -144575 -13915.4 55304.8 -5053.48 -5590.57 -7.41572 
1237 1 17.7871 3.36751 2.93043 6.00349 -161724 -142219 11029.5 46422.8 17192.6 -12735.8 -7.41764 
1238 1 17.056 2.15228 2.92979 6.00838 -156974 -146996 -6668.42 66452.4 -9143.64 -5598.59 -7.41617 
1239 1 17.7424 0.911897 2.93112 6.00313 -156341 -146605 3302.12 54236.2 13558 -9639.15 -7.41698 
6768 2 10.4738 8.78919 6.47277 6.01191 -118250 -186078 11483.5 -8941.16 9068.25 -18271.6 -7.4176 
6769 2 11.2056 7.57482 6.47254 6.01725 -114911 -194857 -11394.6 -3561.43 4511.27 -3465.4 -7.4155 
6770 2 10.5172 6.33553 6.47455 6.01226 -125152 -179627 10757.9 -26233.1 12555.2 -18292.2 -7.41747 
6771 2 11.2495 5.1213 6.47421 6.01151 -125759 -185333 -9161.39 -19588.9 2094.98 -8436.67 -7.41557 
6772 2 10.5622 3.88145 6.47672 6.00859 -135064 -171281 7955.69 -42403.2 13307.2 -17905.8 -7.41711 
6773 2 11.2946 2.66722 6.47605 6.007 -139631 -171794 -5047.49 -32498.2 -1701.93 -13373.6 -7.41587 
6774 2 10.6083 1.42683 6.47846 6.00892 -148122 -160920 3576.95 -52816.8 10527.8 -16632.2 -7.41659 
6775 2 11.3405 0.212389 6.47715 6.00594 -154923 -155236 307.815 -37909.3 -6117.99 -17130.9 -7.41635 
6903 2 13.3121 8.83779 6.46861 6.01942 -117166 -188029 -15971.5 -1505.68 3950.18 -1537.99 -7.41542 
6904 2 12.6233 7.59868 6.46983 6.01357 -127685 -174776 14876.5 -24941.6 10676.1 -17382.8 -7.41797 
6905 2 13.3549 6.38404 6.46921 6.01408 -126616 -180154 -13616.7 -18053.4 1556.38 -4131.89 -7.41547 
6906 2 12.6672 5.14443 6.47108 6.00865 -135051 -168021 11962.8 -42034.7 13020.4 -15266.9 -7.41765 
6907 2 13.3991 3.92988 6.47069 6.00942 -137159 -170822 -9260.64 -33028.7 -1745.17 -7457.07 -7.41573 
6908 2 12.7122 2.6898 6.47286 6.00664 -144646 -160975 7130.19 -55362.6 12752.2 -13145.3 -7.41713 
6909 2 13.4442 1.47521 6.47241 6.00647 -148718 -159374 -3306.32 -42161.4 -5845.37 -10780.1 -7.4162 
6910 2 12.758 0.234738 6.47425 6.00869 -155213 -153072 1130.02 -60872.6 9837.33 -10851.2 -7.41652 
7038 2 14.7298 8.86136 6.46562 6.01569 -131876 -170030 19215.3 -23058.3 10792.4 -19569.7 -7.41839 
7039 2 15.4608 7.6463 6.46455 6.01581 -127762 -173526 -18271.2 -15958.7 2687.52 -3559.76 -7.41541 
7040 2 14.7726 6.40685 6.46616 6.01038 -138418 -162670 16327.4 -40010 13399.6 -15490.4 -7.41812 
7041 2 15.504 5.19193 6.46572 6.0112 -136864 -166082 -13805.9 -31967.3 -722.828 -4771.45 -7.41562 
7042 2 14.8167 3.95203 6.46785 6.00665 -144864 -157341 11349.7 -54899.5 14334.8 -11874.4 -7.41763 
7043 2 15.5484 2.73719 6.4679 6.00758 -145574 -158652 -7622.48 -43970.7 -4994.25 -6726.77 -7.41602 
7044 2 14.8618 1.49695 6.47005 6.006 -151588 -152753 4810.48 -63961.3 12936.5 -8881.82 -7.41699 
7045 2 15.5934 0.282069 6.47012 6.00554 -154051 -150732 -354.087 -48653 -9542.97 -9031.99 -7.41658 
7173 2 17.5671 8.90797 6.45929 6.01456 -126114 -170285 -23165.8 -15156.3 5104.94 -6479.63 -7.41544 
7174 2 16.8785 7.66874 6.46098 6.01185 -141364 -159218 20966.8 -39030.4 15522 -19075.8 -7.41854 
7175 2 17.6093 6.45345 6.46032 6.01107 -135643 -161695 -18510.1 -31704.2 1531.62 -5961.64 -7.41557 
7176 2 16.9216 5.21372 6.46262 6.00728 -146816 -153062 15959.8 -54507.4 16639.2 -14006.1 -7.41807 
7177 2 17.6529 3.9986 6.46285 6.00715 -143555 -155607 -12218.6 -45775 -3056.22 -6275.1 -7.41588 
7178 2 16.9659 2.7585 6.46548 6.0046 -150967 -149874 9199.85 -65967 15848.5 -9857.88 -7.41745 
7179 2 17.6974 1.54347 6.46617 6.00414 -150408 -150882 -4718.19 -54097.1 -8413.49 -7510.12 -7.41637 
7180 2 17.011 0.30316 6.46848 6.0049 -154415 -148362 1348.88 -70420.3 13092 -7000.75 -7.41678 
7308 2 18.9848 8.92975 6.45497 6.01134 -140844 -161008 26090.2 -40823.1 19267.8 -24760 -7.419 
7310 2 19.0269 6.47469 6.45664 6.00678 -147371 -151777 20882.2 -56399.1 20255.8 -19024.1 -7.41852 
7312 2 19.0704 4.01936 6.45994 6.00297 -151183 -147238 13995.2 -69546.3 19492.5 -13946.5 -7.4179 
7314 2 19.115 1.56393 6.46408 6.00121 -153272 -146334 5823.39 -77342.8 16762.9 -10212.2 -7.41722 
1368 1 19.2909 8.25825 2.93838 6.01705 -160762 -137225 -24849.6 42553.6 1072.54 -11080.9 -7.4155 
1369 1 19.9784 7.01828 2.93685 6.00384 -170746 -136085 22708.1 36188.7 22561.9 -22388.8 -7.4187 
1370 1 19.2484 5.80244 2.93343 6.01215 -156415 -144140 -18893.2 58024.1 -2921.74 -9271.61 -7.41567 
1371 1 19.9354 4.56234 2.93298 5.99944 -163495 -141973 15470.4 51278.6 21840.7 -17116.6 -7.41806 
1372 1 19.2046 3.34692 2.93137 6.00604 -154663 -146895 -11416.7 70638.8 -7580.66 -8079.98 -7.41603 
1373 1 19.8913 2.10668 2.93243 5.9982 -157811 -145151 7389.25 61889.6 18290.8 -13024.8 -7.41739 
1374 1 19.1599 0.891489 2.93249 6.00224 -154096 -146880 -2928.86 77691.2 -12488.2 -8251.21 -7.41656 
1503 1 22.1251 8.2147 2.9435 6.00031 -178882 -130569 28714.5 43873.6 26094.4 -28504.7 -7.41927 
1504 1 21.3959 6.99836 2.9386 6.00928 -158175 -140268 -24294.5 65116.1 -54.0805 -14173.3 -7.41568 
1505 1 22.0833 5.75848 2.93782 5.9945 -168744 -138925 20735.9 59989.4 26473.2 -23098.9 -7.41857 
1506 1 21.3529 4.5427 2.93461 6.00248 -154509 -145365 -16512.3 78879 -5054.73 -12721.4 -7.41595 
1507 1 22.0399 3.30265 2.93529 5.99189 -161222 -143473 12032.7 72971.1 23558.8 -18409.1 -7.41785 
1508 1 21.3088 2.08723 2.93416 5.99786 -153209 -146248 -7728.7 88297.9 -10820 -12043.2 -7.41639 
1509 1 21.9954 0.847055 2.93643 5.99152 -155093 -145620 3121.11 79785.5 17729.3 -15051.6 -7.41716 
1638 1 23.5425 8.19623 2.94624 6.00618 -165341 -131865 -30407.5 75845.1 2531.29 -18146.8 -7.41569 
1639 1 24.2303 6.95655 2.9454 5.9897 -178049 -131512 27108.4 71888.2 30203.3 -28595.2 -7.4192 
1640 1 23.5008 5.74021 2.94053 5.99861 -158303 -140397 -22049.3 90870.2 -2225.14 -17437.6 -7.41592 
1641 1 24.188 4.50035 2.9408 5.98506 -167585 -139079 17546.5 87133.3 28665.7 -24145.4 -7.4184 
1642 1 23.4574 3.28455 2.93791 5.99263 -154631 -144237 -12888.3 102565 -8335.45 -16753.9 -7.41628 
1643 1 24.1441 2.04453 2.93973 5.98373 -159068 -143189 7903.53 97394.1 23452.5 -20485.8 -7.41765 
1644 1 23.4129 0.829027 2.93903 5.98933 -152896 -144664 -3239.83 108672 -15112.9 -16940.4 -7.41679 
1773 1 26.3763 8.15711 2.95506 5.98594 -189863 -120335 34492.8 84995.6 32379.4 -32004.9 -7.41994 
1774 1 25.6478 6.93999 2.94907 5.9955 -166469 -131789 -28288 104892 76.5491 -20509.1 -7.41586 
1775 1 26.3353 5.70035 2.94902 5.97903 -177124 -130915 24054.1 102906 32761.4 -28507.9 -7.41907 
1776 1 25.6055 4.48395 2.94441 5.98768 -159414 -139107 -18490.1 119288 -5651.72 -20559 -7.41618 
1777 1 26.2925 3.24413 2.94557 5.97559 -165687 -138189 13486.6 116739 29025 -25221.2 -7.41821 
1778 1 25.5617 2.02823 2.94311 5.98246 -154865 -142550 -8421.52 128729 -12801.8 -20748.6 -7.41664 
1779 1 26.2484 0.788319 2.94563 5.97386 -155667 -143402 3312.79 123526 21747.3 -22695.4 -7.41746 
1908 1 27.7937 8.1424 2.95919 5.99369 -177262 -120668 -35375.4 118348 1311.95 -21286.1 -7.41574 
1909 1 28.4817 6.90299 2.95904 5.97456 -187592 -120094 31388.7 117789 35257.4 -30478.5 -7.41983 
1910 1 27.7528 5.68584 2.95329 5.98409 -167655 -131214 -24750.9 135950 -3408.9 -22325.1 -7.41607 
1911 1 28.4402 4.44626 2.95375 5.96861 -174494 -130347 19896.9 135510 33626.5 -28050.6 -7.41888 
1912 1 27.71 3.22978 2.94962 5.9766 -159884 -137961 -14037.3 149212 -10140 -23015.5 -7.41648 
1913 1 28.397 1.99008 2.95117 5.96617 -162369 -138356 8799.28 147006 27709 -25871.1 -7.41801 
1914 1 27.666 0.774036 2.94921 5.97209 -153700 -141934 -3428.34 155477 -18081.7 -23907.7 -7.41704 
7309 2 19.7151 7.71413 6.45414 6.00699 -130956 -161555 -23544.1 -33876.5 4340.66 -9874.4 -7.4156 
7311 2 19.7577 5.25927 6.45686 6.0038 -140163 -154023 -16992.6 -49442 -249.079 -9075.66 -7.41583 
7313 2 19.8017 2.80412 6.46094 6.00072 -147259 -149698 -9352.14 -60952.9 -6136.54 -9128.41 -7.41621 
7315 2 19.8464 0.348791 6.46509 5.99873 -152871 -147263 -1054.86 -65431.1 -12600.1 -10375.4 -7.41675 
7443 2 21.8218 8.97334 6.44747 6.00027 -121671 -167598 -29308.3 -39154.5 6659.71 -14391.7 -7.41564 
7444 2 21.1328 7.73441 6.44999 6.00399 -143905 -155807 26309.9 -61689.6 24718.8 -25112.9 -7.41904 
7445 2 21.8632 6.51871 6.45023 5.99752 -133250 -156830 -22197.2 -56017.8 2628.15 -13502.1 -7.41584 
7446 2 21.1753 5.27915 6.45344 5.99984 -149545 -147869 19122.6 -76225.2 24027.6 -19933.8 -7.41839 
7447 2 21.9063 4.06366 6.45457 5.99465 -142176 -150369 -14210.2 -70292.2 -3163.83 -12926.2 -7.41614 
7448 2 21.2192 2.82369 6.45823 5.99682 -152277 -145048 10728.6 -86851.9 21208.5 -15634.3 -7.41768 
7449 2 21.9506 1.60838 6.4596 5.99233 -149114 -147239 -5695.57 -78829.8 -10365 -13280.9 -7.41658 
7450 2 21.264 0.368211 6.46299 5.99597 -153064 -145280 1566.15 -91184.1 16542.9 -12912 -7.41699 
7578 2 23.2396 8.9922 6.4433 5.99885 -135560 -165286 32516.6 -69775.6 28867.5 -30233.9 -7.41967 
7579 2 23.9697 7.77624 6.44374 5.98982 -122679 -164850 -28220.1 -64980.5 4689.86 -17588.2 -7.41582 
7580 2 23.2809 6.53726 6.44666 5.99469 -144017 -153295 24742 -85799.9 28781.4 -25889.5 -7.41897 
7581 2 24.0116 5.32152 6.44786 5.98682 -134103 -155037 -19565.4 -81894.3 -297.783 -17235.5 -7.4161 
7582 2 23.3239 4.08194 6.45149 5.99101 -149006 -146761 15988.1 -99211.8 26246.5 -21762.9 -7.4182 
7583 2 24.0551 2.86641 6.45302 5.98423 -143409 -149123 -10615.8 -94519.7 -7402.91 -17193.8 -7.41648 
7584 2 23.3681 1.62647 6.45685 5.98891 -151527 -144553 6532.56 -107426 21447.3 -18602 -7.41745 
7585 2 24.0996 0.411044 6.45778 5.98297 -151440 -145859 -1485.79 -100109 -15719.3 -18140.8 -7.41699 
7713 2 26.0775 9.03133 6.43818 5.98242 -109846 -176574 -35235.5 -74810.6 5447.62 -19961.7 -7.41573 
7714 2 25.3874 7.7931 6.44049 5.98802 -134620 -162833 31064.1 -96550.7 32691.3 -30154.7 -7.41966 
7715 2 26.1179 6.57711 6.44183 5.97884 -123609 -163657 -25732.3 -94276.9 1723.4 -20482 -7.41603 
7716 2 25.4292 5.33813 6.44489 5.98392 -142536 -152254 21717.2 -112961 31109.6 -26902.4 -7.41882 
7717 2 26.1602 4.12235 6.44649 5.97572 -135476 -154269 -16056.7 -110954 -4462.01 -20697.3 -7.41639 
7718 2 25.4727 2.88282 6.45008 5.98097 -147793 -146415 11871 -125251 26772.5 -23900 -7.41799 
7719 2 26.204 1.66717 6.45122 5.9738 -146033 -148020 -6442.15 -121517 -12809.1 -21242.8 -7.41685 
7720 2 25.5171 0.427342 6.45468 5.98026 -151526 -144075 1753.16 -130888 20290 -21761.3 -7.41724 
7848 2 27.4953 9.04635 6.43559 5.98093 -122929 -174418 38141.9 -106573 34928 -31969.7 -7.42044 
7849 2 28.2254 7.83008 6.43717 5.97211 -112238 -174342 -32782.2 -105618 2535.05 -21797.6 -7.41587 
7850 2 27.5356 6.59183 6.43937 5.97633 -133470 -160592 28073.1 -125829 34876.3 -29918 -7.41954 
7851 2 28.2663 5.37578 6.44103 5.9681 -126450 -162247 -22235.1 -126133 -2187.29 -22708.2 -7.41625 
7852 2 27.5779 4.13683 6.44387 5.97265 -141622 -151044 17648.1 -142454 31737.1 -27572.8 -7.41862 
7853 2 28.3091 2.92094 6.44512 5.96522 -138973 -152744 -11912.1 -141881 -9668.77 -23350.9 -7.4167 
7854 2 27.6216 1.6815 6.44819 5.97093 -148141 -145438 7122.17 -153109 25785.5 -25430.1 -7.41776 
7855 2 28.3529 0.46564 6.44821 5.96429 -150608 -145339 -1709.2 -149346 -18916.2 -24287.7 -7.41728 
2043 1 30.6268 8.10834 2.96946 5.97206 -197449 -108581 39238.9 129861 36005.6 -29985 -7.42063 
2044 1 29.899 6.89036 2.96336 5.98217 -177039 -121758 -31763.1 149874 -1999.88 -21912.1 -7.41589 
2045 1 30.5869 5.65106 2.96326 5.96348 -183482 -120729 26986.9 151344 36690.8 -28507.5 -7.41962 
2046 1 29.8576 4.43389 2.95802 5.97256 -167251 -131461 -20237.2 167438 -7640.53 -23209.9 -7.4163 
2047 1 30.5449 3.19445 2.95852 5.95879 -170079 -131220 14967.8 167811 32841.4 -27000.8 -7.41863 
2048 1 29.8145 1.97788 2.95502 5.96557 -158781 -137979 -9021.49 178551 -15270.7 -24299.4 -7.41683 
2049 1 30.5016 0.738405 2.95642 5.95671 -157191 -140377 3615.73 175555 25066.5 -25693.1 -7.41776 
2178 1 32.0441 8.09744 2.97322 5.98171 -185850 -112498 -39373.6 159708 -1530.45 -19850.7 -7.41566 
2179 1 32.7326 6.85845 2.97279 5.96065 -191420 -111138 34526.1 162817 38040.7 -26871 -7.42039 
2180 1 32.0043 5.64054 2.96716 5.97047 -175097 -124045 -27066.8 181336 -5675.62 -21576.9 -7.41609 
2181 1 32.6921 4.40139 2.96675 5.95326 -177753 -123078 21717 184004 36599.4 -26054.3 -7.41931 
2182 1 31.9624 3.18421 2.96221 5.96121 -165075 -132853 -15096.7 197520 -12304.2 -22903 -7.41659 
2183 1 32.6498 1.94499 2.96238 5.95032 -164394 -133856 9519.74 197564 30603.7 -25245.2 -7.41831 
2184 1 31.9191 0.728319 2.95958 5.95519 -155663 -139261 -3606.82 204875 -20607.1 -24160 -7.41723 
2313 1 34.8773 8.06815 2.98121 5.9598 -196626 -103339 42282.2 169090 37831.9 -23808 -7.42116 
2314 1 34.15 6.84953 2.97583 5.97012 -181900 -117285 -34393.2 189626 -4459.52 -18743.2 -7.41583 
2315 1 34.8384 5.61073 2.97476 5.95028 -184025 -115265 28889.5 194389 38757.9 -23498.9 -7.42002 
2316 1 34.1095 4.3929 2.96981 5.95911 -171479 -127199 -21662.4 210794 -9596.1 -20185.3 -7.41632 
2317 1 34.7974 3.15397 2.96891 5.94467 -171126 -126710 15933.9 213599 35028.5 -23178.7 -7.41891 
2318 1 34.0673 1.93678 2.96518 5.95075 -161447 -134959 -9529.44 224006 -17188 -21407.7 -7.41693 
2319 1 34.755 0.697845 2.96494 5.94389 -158293 -137848 3737.78 222485 27245.6 -22816.9 -7.41792 
2448 1 36.2946 8.0605 2.98309 5.97111 -185923 -112124 -41990.5 192031 -4036.6 -15327.8 -7.41554 
2449 1 36.9838 6.82208 2.98166 5.9494 -187492 -109410 36315.3 198485 39366.4 -19964.8 -7.42075 
2450 1 36.2558 5.60364 2.97684 5.95897 -176571 -122635 -28626.3 217358 -7477.48 -16743.6 -7.41604 
2451 1 36.9443 4.36505 2.97517 5.94162 -176289 -120445 22747.2 222733 38063.7 -19986.1 -7.41956 
2452 1 36.2149 3.14731 2.97101 5.94879 -166910 -130836 -15812.5 236375 -13782.2 -17866.4 -7.41662 
2453 1 36.9029 1.90863 2.96976 5.93839 -164675 -131385 9892.9 238160 32158.9 -19993.9 -7.41845 
2454 1 36.1725 0.691406 2.96689 5.94194 -157169 -137300 -3632.89 244747 -22147.9 -18967.1 -7.41734 
7983 2 30.3344 9.08038 6.43397 5.96754 -101611 -184906 -40500.1 -114651 2191.12 -21117.5 -7.41563 
7984 2 29.6433 7.84292 6.43535 5.96937 -123473 -169823 35097.9 -136162 36928.7 -30526.1 -7.42033 
7985 2 30.3736 6.62656 6.43708 5.96248 -116985 -171088 -29158.1 -138371 -931.332 -22810.3 -7.41604 
7986 2 29.684 5.38829 6.43901 5.96482 -134154 -157366 23984.3 -156812 35566.6 -29037.7 -7.41933 
7987 2 30.415 4.17211 6.44032 5.9584 -131013 -159276 -18007.6 -159021 -6898.63 -23870.8 -7.4165 
7988 2 29.7267 2.93321 6.44261 5.962 -142916 -148840 12897.1 -172644 30882.6 -27253.1 -7.41836 
7989 2 30.4579 1.71711 6.4429 5.95611 -144216 -149468 -7211.44 -172387 -15536.5 -24700.7 -7.41705 
7990 2 29.7705 0.47781 6.44502 5.962 -150747 -143078 1943.49 -180480 23606.2 -25596 -7.41751 
8118 2 31.7523 9.0915 6.43263 5.96396 -114169 -177981 42656 -142735 37142.7 -29087.3 -7.42114 
8119 2 32.4821 7.87478 6.43443 5.95945 -108736 -179034 -36652.5 -146570 -717.747 -21197.8 -7.41577 
8120 2 31.7914 6.63723 6.43559 5.95847 -126196 -164022 30913.7 -166699 37783.9 -28388.6 -7.4201 
8121 2 32.5219 5.42072 6.43695 5.95406 -123432 -166211 -24705.7 -171347 -4898.71 -22741.4 -7.41624 
8122 2 31.8327 4.18243 6.43844 5.95438 -136663 -153243 19170 -187503 34958.9 -27117.3 -7.41904 
8123 2 32.5637 2.96605 6.43895 5.95024 -137515 -154777 -13207.6 -190549 -12175.8 -23737 -7.41678 
8124 2 31.8755 1.72723 6.44041 5.95294 -146271 -145464 7697.74 -201258 28807.5 -25591.6 -7.41806 
8125 2 32.6067 0.510816 6.43947 5.9491 -151192 -144165 -1982.04 -200067 -21563.7 -24495 -7.41745 
8253 2 34.5919 9.12076 6.43249 5.95883 -102762 -184384 -44478.9 -150569 -1339.54 -18389.5 -7.41545 
8254 2 33.9 7.88389 6.4332 5.95416 -119426 -169391 38334.7 -171592 38304.5 -26115.9 -7.42089 
8255 2 34.63 6.667 6.43458 5.95212 -117503 -171949 -31897.5 -178367 -3818.38 -20298.5 -7.41594 
8256 2 33.9396 5.42934 6.4355 5.94881 -130710 -157536 25967.2 -196580 37628.8 -25348.6 -7.41977 
8257 2 34.6703 4.21263 6.43618 5.9469 -131763 -160019 -19664.1 -202621 -9297.56 -21547 -7.41648 
8258 2 33.9813 2.97433 6.4371 5.94574 -141343 -148305 13894.6 -216051 33220.3 -24089.6 -7.41868 
8259 2 34.7123 1.75768 6.43663 5.94408 -145350 -148660 -7935.57 -218549 -17718.9 -22320.3 -7.41712 
8260 2 34.0242 0.518949 6.43712 5.94624 -151586 -141238 2168.82 -225984 25788.2 -22690.1 -7.41771 
8388 2 36.0098 9.12865 6.43115 5.95171 -114829 -172239 46061.1 -171818 37344.4 -22796.7 -7.42167 
8389 2 36.7391 7.91133 6.43252 5.95129 -113922 -175055 -39443 -180344 -3592.05 -17035 -7.41562 
8390 2 36.0477 6.67425 6.4332 5.94557 -126257 -160427 33215.7 -199778 38778.1 -22440.7 -7.42053 
8391 2 36.7778 5.45717 6.43401 5.94455 -127520 -163933 -26536.3 -208452 -7186.06 -18481.8 -7.41615 
8392 2 36.088 4.2194 6.43468 5.94095 -137177 -150750 20543.6 -224194 36511.1 -21492.2 -7.41935 
8393 2 36.8186 3.00246 6.43462 5.94007 -140430 -152942 -14205.5 -230187 -14035 -19378 -7.41676 
8394 2 36.1299 1.76416 6.43491 5.93941 -147407 -143388 8323.52 -240399 30499.5 -20219.3 -7.41826 
8395 2 36.8607 0.547201 6.43356 5.93879 -152743 -142115 -2262.28 -240866 -23206.2 -19841.9 -7.41751 
8524 2 38.1569 7.91759 6.43088 5.94399 -124166 -161161 40781.3 -197691 38513.4 -18848.7 -7.42129 
8526 2 38.1955 5.46279 6.43248 5.93866 -134412 -151952 27592.1 -225812 38495.7 -18204 -7.42007 
8528 2 38.2362 3.00765 6.43317 5.9351 -144046 -144745 14839.1 -247749 34433.4 -17117.1 -7.41887 
8530 2 38.2782 0.552204 6.43216 5.93535 -153352 -139232 2543.78 -258853 26994.3 -15923.5 -7.41782 
2583 1 39.1284 8.035 2.9868 5.95029 -187782 -106318 43817.5 197060 38643.7 -15974.7 -7.42147 
2584 1 38.4012 6.81604 2.98255 5.96022 -178803 -119644 -35849.5 217478 -6129.27 -13053.6 -7.41575 
2585 1 39.0904 5.57781 2.98042 5.94059 -178734 -116077 29831.7 225092 39640.8 -16169.8 -7.42024 
2586 1 38.3617 4.35958 2.97632 5.94882 -170782 -127832 -22405.2 241488 -10790 -14020.7 -7.4163 
2587 1 39.0502 3.12117 2.97433 5.93514 -169139 -125898 16397.1 246475 35991.5 -16434.2 -7.41904 
2588 1 38.3204 1.90352 2.97108 5.9401 -162229 -133979 -9690.59 256528 -18274.9 -14897 -7.41697 
2589 1 39.0087 0.665085 2.96981 5.93461 -159108 -135992 3743.03 256376 28310.6 -16605.6 -7.41797 
2718 1 40.5457 8.02966 2.98644 5.96165 -177774 -118930 -43181.7 212058 -5559.7 -9419.63 -7.41546 
2719 1 41.2358 6.79182 2.98417 5.94139 -177983 -114188 37048 221631 39846.1 -12097.7 -7.42093 
2720 1 40.5078 5.57316 2.9805 5.95021 -171902 -126447 -29242.2 240054 -8495.47 -10191.1 -7.41599 
2721 1 41.197 4.33508 2.97809 5.93386 -170877 -122439 23157.3 247868 38561.2 -12486.5 -7.41967 
2722 1 40.4677 3.11704 2.97483 5.94024 -165388 -132155 -15979 261082 -14584.3 -10831.8 -7.41661 
2723 1 41.1563 1.87881 2.97296 5.93118 -163192 -131096 10014.9 264643 32721.9 -12897.1 -7.41849 
2724 1 40.4262 0.66121 2.97068 5.93355 -158277 -136272 -3405.03 270494 -23003 -11580.2 -7.41739 
2853 1 43.3806 8.00664 2.98613 5.94348 -173870 -115380 44259.5 213423 38870.8 -7977.02 -7.42162 
2854 1 42.6532 6.78766 2.98314 5.95161 -169813 -127217 -36240.8 232798 -7009.58 -6550.15 -7.4157 
2855 1 43.3431 5.54993 2.98061 5.93443 -169488 -121451 30070.4 243099 39815.2 -8380.52 -7.42032 
2856 1 42.6144 4.33157 2.97767 5.94148 -165783 -132034 -22478.6 258817 -11422.2 -6956.53 -7.41628 
2857 1 43.3036 3.09359 2.97544 5.92961 -164519 -128114 16492.7 265832 36171.4 -8922.59 -7.41907 
2858 1 42.5738 1.87571 2.97314 5.93366 -160980 -135024 -9508.3 275128 -18896.3 -7420.55 -7.41698 
2859 1 43.2626 0.637625 2.97181 5.92986 -158959 -135207 3666.65 276570 28580.9 -9379.22 -7.41795 
2988 1 44.798 8.00265 2.98409 5.95386 -164231 -130416 -43300 220835 -6275.99 -3187.39 -7.41541 
2989 1 45.4888 6.7653 2.98169 5.93643 -164967 -123250 37030.5 233234 39826.1 -4235.97 -7.42099 
2990 1 44.7606 5.54669 2.97928 5.94308 -162993 -133806 -29157.8 250457 -8998.99 -3342.42 -7.41597 
2991 1 45.4504 4.309 2.97696 5.92975 -162831 -127541 23111.8 260530 38478.3 -4805.48 -7.41969 
2992 1 44.721 3.0909 2.97487 5.93479 -160978 -135824 -15765.5 272813 -15045.7 -3535.64 -7.41661 
2993 1 45.4101 1.85298 2.97325 5.92791 -160093 -132624 9933.07 278181 32669.1 -5441.01 -7.41848 
2994 1 44.68 0.635207 2.97199 5.92941 -158254 -136365 -3062.29 283124 -23559 -3951.45 -7.41742 
3123 1 47.6342 7.98078 2.98135 5.93956 -157402 -128262 43921.2 219425 38775.1 -91.1001 -7.42164 
3124 1 46.9063 6.76203 2.97954 5.94566 -156965 -137989 -35954.6 237018 -7359 -13.8502 -7.41569 
3125 1 47.5968 5.52466 2.97735 5.93145 -158132 -129715 29798.7 249790 39582.3 -606.958 -7.42033 