ITEM: TIMESTEP
0
ITEM: NUMBER OF ATOMS
12152
ITEM: BOX BOUNDS pp pp pp
0.0000000000000000e+00 9.5721004899999997e+01
0.0000000000000000e+00 1.6579364400000000e+02
0.0000000000000000e+00 1.5000000000000000e+01
ITEM: ATOMS id type x y z c_csym c_2[1] c_2[2] c_2[3] c_2[4] c_2[5] c_2[6] c_3 
152 1 0.819 8.586 3 6.02496 -152714 -137937 -109892 -3732.09 36658.2 -3086.4 -7.41368 
153 1 0.095 7.367 3 6.01967 -130030 -157387 -109903 -7862.23 40413.6 -1274.5 -7.41398 
154 1 0.788 6.13 3 6.02431 -146282 -156638 -116119 -10707 32680.2 -4148.5 -7.41379 
155 1 0.063 4.912 3 6.02437 -131189 -169210 -118574 -8046.18 30599.9 -761.724 -7.41387 
156 1 0.756 3.675 3 6.02108 -141862 -144557 -121950 -7198.64 22555.1 -4569.94 -7.41313 
157 1 0.032 2.456 3 6.02216 -135717 -149854 -123636 -4609.47 16715.9 -248.268 -7.41311 
158 1 0.725 1.219 3 6.02418 -131859 -127575 -124904 10216.6 8308.99 -4909.47 -7.41311 
159 1 0 0 3 6.02705 -129206 -143085 -125463 18357.9 -29.0393 91.1332 -7.41334 
288 1 2.237 8.568 3 6.02464 -126568 -137826 -104974 14797.6 42364.5 -9490.27 -7.4142 
289 1 2.93 7.331 3 6.02546 -149375 -139249 -110717 -3325.46 33593.5 -15489.2 -7.41387 
290 1 2.206 6.112 3 6.02134 -134178 -152810 -113900 1938.35 35586.2 -11475.1 -7.41382 
291 1 2.899 4.875 3 6.02464 -139565 -124103 -116799 7142.61 27018.3 -17675.6 -7.41331 
292 1 2.174 3.656 3 6.0239 -126192 -134897 -120446 9119.47 23373 -12954.1 -7.41322 
293 1 2.867 2.419 3 6.02224 -149322 -177546 -121525 -25176.9 15277.2 -18752.4 -7.41354 
294 1 2.143 1.201 3 6.02154 -141089 -159559 -123974 -30395.9 8106.16 -13787.4 -7.41311 
423 1 5.073 8.532 3 6.0239 -141147 -123754 -102862 2669.76 31471.5 -23543.2 -7.4142 
424 1 4.348 7.313 3 6.02464 -128369 -137235 -107954 15740.5 36843.7 -18120.2 -7.4138 
425 1 5.041 6.076 3 6.02134 -146795 -141269 -109231 -5225.75 28461.3 -27191 -7.41407 
426 1 4.317 4.857 3 6.02546 -135358 -152326 -115035 4727.47 27771.8 -21866.6 -7.41363 
427 1 5.01 3.62 3 6.02464 -136084 -126143 -114490 6966.54 20281.2 -29765.6 -7.41368 
428 1 4.285 2.401 3 6.02471 -127937 -132345 -119338 16669.1 14450 -24519.1 -7.41349 
429 1 4.978 1.164 3 6.02331 -142939 -159189 -118017 -13115.6 7789.3 -30694.5 -7.41348 
558 1 6.491 8.513 3 6.01969 -132033 -158385 -101725 2150.46 34626.5 -20263 -7.41424 
559 1 7.184 7.276 3 6.02431 -147706 -158975 -99363 -15169.4 27067.8 -32692.7 -7.41471 
560 1 6.459 6.058 3 6.02431 -133428 -170953 -108864 -1472.78 28552.4 -25963.9 -7.41419 
561 1 7.152 4.821 3 6.01969 -143673 -146882 -105273 -12307.5 22444.9 -36474.7 -7.41404 
562 1 6.428 3.602 3 6.02362 -137756 -152324 -113187 5063.96 18383.2 -30669.8 -7.41349 
563 1 7.121 2.365 3 6.02418 -133129 -129470 -109905 4469.54 13549.2 -38532.7 -7.41401 
564 1 6.396 1.146 3 6.02468 -131165 -144050 -114949 23590.9 4853.02 -33683.6 -7.41393 
693 1 9.326 8.477 3 6.02546 -150451 -142615 -88679.5 -7667.43 23445 -34136.6 -7.41507 
694 1 8.602 7.258 3 6.02134 -133480 -154820 -102550 9217.05 26151.5 -25235.6 -7.41445 
695 1 9.295 6.021 3 6.02464 -141233 -127451 -94199.4 2440.21 22152.5 -38591.7 -7.41454 
696 1 8.57 4.802 3 6.0239 -125657 -138010 -106569 16423.6 18992.6 -31421.9 -7.41401 
697 1 9.263 3.565 3 6.0231 -150215 -182315 -99922 -30544.7 16767.8 -41486.3 -7.41464 
698 1 8.539 2.347 3 6.02311 -144487 -185079 -108575 -13020.5 8553.7 -36045.9 -7.41426 
699 1 9.232 1.11 3 6.02182 -125727 -114062 -104188 7790.58 8202.61 -42264.4 -7.41382 
6096 2 0.599 8.604 6.4 6.02334 -115553 -126204 -105268 7098.32 42806 -1172.22 -7.41387 
6097 2 0.63 6.149 6.4 6.02313 -131304 -173783 -114570 10122.2 35919.8 -2689.27 -7.41365 
6098 2 0.662 3.693 6.4 6.02461 -120684 -118785 -121279 3727.82 23750.7 -3760.64 -7.41287 
6099 2 0.693 1.237 6.4 6.02628 -126338 -133902 -124958 -10143.9 8461.32 -4609.53 -7.413 
6100 2 0 0 6.4 6.02658 -131332 -143399 -125518 -3137.33 18.3828 32.7205 -7.41297 
6228 2 2.017 8.623 6.4 6.01968 -146870 -140567 -108683 7196.93 36838 -11881 -7.41407 
6229 2 2.741 7.404 6.4 6.02495 -135969 -155261 -109050 6668.45 37823.8 -11092.2 -7.4137 
6230 2 2.048 6.167 6.4 6.02385 -136970 -122181 -114950 -14236.6 32872.2 -13136.7 -7.41399 
6231 2 2.773 4.948 6.4 6.02464 -127339 -134252 -116896 -7758.75 28724.8 -14667 -7.41355 
6232 2 2.08 3.711 6.4 6.02511 -141670 -142870 -120607 1171.61 22817.3 -14029.4 -7.41354 
6233 2 2.804 2.492 6.4 6.02273 -135868 -149172 -121533 4770.56 15346.6 -17288.8 -7.41338 
6234 2 2.111 1.255 6.4 6.02555 -131535 -128951 -123608 -13382.4 8594.5 -13998 -7.41309 
6235 2 2.836 0.036 6.4 6.02352 -133565 -142033 -123401 -9729.41 -225.476 -18718.4 -7.4131 
6363 2 4.852 8.659 6.4 6.02546 -133820 -156366 -102806 7472.38 36209.7 -15391 -7.4143 
6364 2 4.159 7.422 6.4 6.02464 -141835 -121690 -108041 -14007.5 34151.5 -22764.3 -7.41404 
6365 2 4.884 6.203 6.4 6.02417 -126050 -135790 -110837 -4854.8 30150.6 -21382.1 -7.41401 
6366 2 4.191 4.966 6.4 6.02362 -147647 -142477 -113926 -241.941 27631.7 -25014 -7.41344 
6367 2 4.915 3.747 6.4 6.01968 -133664 -154118 -116323 12588.3 19877.9 -26135.8 -7.41344 
6368 2 4.222 2.51 6.4 6.02431 -140964 -161455 -118598 6013.23 15974.7 -26176.7 -7.41366 
6369 2 4.947 1.292 6.4 6.02432 -137129 -164532 -118669 15757.2 6161.98 -29549.7 -7.41373 
6370 2 4.254 0.055 6.4 6.01897 -133627 -127080 -120272 -9029.81 1031.11 -26146.7 -7.41302 
6498 2 6.27 8.677 6.4 6.02464 -145039 -122337 -98912.7 -13422.1 32299.7 -28500.8 -7.41429 
6499 2 6.995 7.458 6.4 6.0239 -124091 -140142 -104347 2592.91 28250.9 -23289.5 -7.41412 
6500 2 6.302 6.221 6.4 6.02311 -154295 -177144 -105041 18036.6 29409.8 -31956.2 -7.41436 
6501 2 7.026 5.003 6.4 6.0231 -141225 -188737 -109680 31161.6 20996.5 -30135.9 -7.41412 
6502 2 6.333 3.766 6.4 6.0239 -134640 -129065 -110025 -11514.4 21346.8 -34285.6 -7.41379 
6503 2 7.058 2.547 6.4 6.02464 -130371 -134132 -112707 -1448.33 10449.8 -35345 -7.41355 
6504 2 6.365 1.31 6.4 6.02134 -139730 -147629 -113919 -4934.11 8962.35 -34955.1 -7.41378 
6505 2 7.089 0.091 6.4 6.02446 -139701 -161776 -112680 3711.27 -1856.51 -38133.1 -7.41403 
6633 2 9.106 8.714 6.4 6.02431 -131579 -173405 -98824.8 20351.7 23741.6 -20927.9 -7.41475 
6634 2 8.413 7.477 6.4 6.01968 -147646 -144953 -94210.6 668.586 28173.4 -34625 -7.41463 
6635 2 9.137 6.258 6.4 6.02362 -135634 -155603 -103454 13525.3 19393.8 -28906.9 -7.41403 
6636 2 8.444 5.021 6.4 6.02417 -137852 -126613 -99904.6 -17879.5 23801.2 -37748.4 -7.41461 
6637 2 9.169 3.802 6.4 6.02464 -127773 -135641 -106043 -1148.19 11642.1 -35760.1 -7.41415 
6638 2 8.476 2.565 6.4 6.02546 -142832 -147344 -104837 -6549.21 15108.3 -39170.2 -7.41418 
6639 2 9.2 1.346 6.4 6.02287 -136442 -152203 -106544 10935.4 2088.23 -40253.8 -7.41419 
6640 2 8.507 0.109 6.4 6.0246 -134507 -144119 -107710 -13279.3 3543.07 -38727 -7.41409 
828 1 10.744 8.459 3 6.02464 -127170 -137971 -97792.9 21431.7 21341 -20706.1 -7.41436 
829 1 11.437 7.222 3 6.02134 -148153 -144913 -83267.5 -9748.37 20072.5 -36876.8 -7.41548 
830 1 10.713 6.003 3 6.02546 -134533 -154471 -100874 10759.1 16981.5 -27557 -7.41442 
831 1 11.406 4.766 3 6.02464 -137829 -129632 -88834.2 2275.42 17846.7 -40174.2 -7.41508 
832 1 10.681 3.547 3 6.02417 -127804 -134868 -102297 22765.8 9325.52 -33318.8 -7.41449 
833 1 11.374 2.31 3 6.02362 -143313 -151063 -94274.1 -13027.8 12412.6 -41642.5 -7.41448 
834 1 10.65 1.091 3 6.0209 -140995 -164803 -101689 11138.3 -196.468 -37274.7 -7.41427 
963 1 13.58 8.422 3 6.02431 -148663 -162340 -72267.7 -19595.3 17287.7 -33179.6 -7.41617 
964 1 12.855 7.204 3 6.02431 -132125 -171266 -96807.5 2790.08 12983.2 -20984.8 -7.41486 
965 1 13.548 5.967 3 6.01969 -145133 -149972 -78186.5 -16677.6 17491.9 -35977.4 -7.41551 
966 1 12.824 4.748 3 6.02362 -136828 -154125 -97761.4 9754.31 7894.22 -26937.6 -7.41434 
967 1 13.517 3.511 3 6.02417 -135457 -131279 -83824.5 326.867 14854 -37537.9 -7.41548 
968 1 12.792 2.292 3 6.02467 -129093 -135596 -96169.5 23813.2 747.794 -31677.1 -7.41465 
969 1 13.485 1.055 3 6.02547 -143153 -163883 -89246.7 -19611.3 9733.54 -37205.6 -7.41506 
1098 1 14.998 8.404 3 6.02134 -131681 -152890 -94723.3 11495.8 8323.66 -13717.5 -7.41487 
1099 1 15.691 7.167 3 6.02464 -142365 -129843 -67706.8 -1651.95 16874.3 -30868.6 -7.41598 
1100 1 14.966 5.948 3 6.0239 -124267 -137582 -94603 19272.5 4868.77 -19033.1 -7.41466 
1101 1 15.659 4.711 3 6.02067 -151795 -184129 -73731.6 -34310 16130 -31658.3 -7.41606 
1102 1 14.935 3.493 3 6.0231 -143984 -188208 -92501.1 -7554.78 -10.7859 -23774.1 -7.41481 
1103 1 15.628 2.256 3 6.02419 -131736 -135822 -80053.9 -921.465 13256.4 -31608.3 -7.41551 
1104 1 14.903 1.037 3 6.02468 -131683 -146377 -89086.9 29094.4 -6272.08 -27539.5 -7.41534 
1233 1 17.833 8.368 3 6.02512 -147332 -147551 -58285 -14996 16811.7 -27008.1 -7.41693 
1234 1 17.109 7.149 3 6.02628 -132663 -151798 -93546.3 11770.5 1895.04 -11894.9 -7.4148 
1235 1 17.802 5.912 3 6.02656 -136709 -131204 -64338.8 646.999 17351.6 -26498.7 -7.41662 
1236 1 17.077 4.693 3 6.0242 -124788 -136020 -90850 24632.7 -1891.96 -15801.1 -7.41498 
1237 1 17.77 3.456 3 6.0231 -151507 -185451 -71226.8 -33438.8 15995.2 -25613.3 -7.41594 
1238 1 17.046 2.238 3 6.02067 -144461 -184927 -86888.4 -9410.34 -6511.4 -19430.6 -7.41543 
1239 1 17.739 1.001 3 6.02182 -127014 -113069 -78113 3933.74 12906.2 -24233.4 -7.41536 
6768 2 10.524 8.732 6.4 6.02134 -150302 -142492 -83563.5 -5660.97 24730.6 -33750.6 -7.41547 
6769 2 11.248 7.513 6.4 6.02546 -133041 -155601 -98526.2 12885.4 15722.9 -23783.3 -7.41454 
6770 2 10.555 6.276 6.4 6.02464 -140324 -127258 -88799.2 -19235.5 23724.3 -36995.5 -7.41508 
6771 2 11.28 5.057 6.4 6.02417 -126038 -136286 -100618 549.884 10635.8 -31337.9 -7.41459 
6772 2 10.587 3.82 6.4 6.02362 -146317 -147958 -94302.6 -5828.7 18497.8 -39068.2 -7.41452 
6773 2 11.311 2.601 6.4 6.01969 -134486 -155709 -100469 17859.9 3432.09 -37179.4 -7.41431 
6774 2 10.618 1.364 6.4 6.02433 -140960 -165002 -98566 -65.829 10297.1 -39189.7 -7.41482 
6775 2 11.343 0.146 6.4 6.02372 -134378 -145336 -98279.9 31221.7 -4851.72 -40680 -7.4146 
6903 2 13.359 8.768 6.4 6.02299 -131928 -154989 -95558.3 13324.9 11179.8 -16531.2 -7.41471 
6904 2 12.666 7.531 6.4 6.02464 -143473 -127772 -77927.9 -18577.1 21767.6 -33768.4 -7.41543 
6905 2 13.391 6.312 6.4 6.0239 -122995 -138652 -96563.6 6198.13 7955.27 -24007.4 -7.41467 
6906 2 12.698 5.075 6.4 6.0231 -152871 -182447 -83211.6 12741.7 19736.4 -35563.2 -7.41554 
6907 2 13.422 3.857 6.4 6.02311 -141580 -188864 -95905.4 35082.4 2908.07 -30168.7 -7.41487 
6908 2 12.729 2.62 6.4 6.0239 -133464 -133934 -88542.6 -16853.9 14628.9 -36042 -7.41498 
6909 2 13.454 1.401 6.4 6.02467 -131019 -136230 -93351.8 2495.34 -3505.91 -34872.1 -7.41455 
6910 2 12.761 0.164 6.4 6.02222 -142595 -163761 -93242.2 -3209.4 7259.84 -34785.6 -7.41485 
7038 2 14.777 8.786 6.4 6.02461 -143284 -130139 -67342.8 -19422.6 18939 -29854.7 -7.41588 
7039 2 15.502 7.567 6.4 6.02236 -129458 -171823 -94601.9 -10667.9 4953.29 -15742.8 -7.41497 
7040 2 14.809 6.331 6.4 6.01968 -153202 -183378 -72418.3 -21491.4 19406.6 -30669.4 -7.41613 
7041 2 15.533 5.112 6.4 6.0231 -134090 -156306 -93251.8 16138.3 1161.52 -21537.7 -7.41446 
7042 2 14.84 3.875 6.4 6.02417 -136521 -130720 -78669 -22727.6 17174.2 -30875.6 -7.41576 
7043 2 15.565 2.656 6.4 6.02464 -128435 -134985 -90322.9 1491.47 -3535.45 -26521.6 -7.41501 
7044 2 14.872 1.419 6.4 6.02546 -141143 -151517 -84336.5 -10962 12274.7 -29939 -7.41527 
7045 2 15.596 0.2 6.4 6.02446 -141281 -165013 -85854 7041.86 -8728.89 -29908.7 -7.41524 
7173 2 17.613 8.823 6.4 6.02431 -129426 -168807 -94213.1 22057.9 2637.5 -9163.65 -7.41497 
7174 2 16.92 7.586 6.4 6.01968 -146866 -148771 -62713.6 -5401.59 18652.7 -26560.2 -7.41646 
7175 2 17.644 6.367 6.4 6.02413 -134107 -152552 -92449.4 15613 -350.3 -13555 -7.41461 
7176 2 16.951 5.13 6.4 6.02413 -138748 -130424 -68845.7 -23562.8 18372.1 -25749.9 -7.41617 
7177 2 17.676 3.911 6.4 6.02464 -126911 -134178 -89044.5 1533.36 -4370.57 -17957.7 -7.41507 
7178 2 16.983 2.674 6.4 6.02546 -143282 -149797 -75635.8 -11499.8 15859.7 -24446 -7.41577 
7179 2 17.707 1.455 6.4 6.02287 -136078 -152290 -84125.8 14311.6 -8667.15 -21528.7 -7.41538 
7180 2 17.014 0.218 6.4 6.0246 -134904 -145361 -81391 -17601.2 11515.9 -22312.2 -7.41551 
7308 2 19.031 8.841 6.4 6.02134 -149944 -146062 -53619.5 -10897.9 18360.5 -24794.3 -7.41709 
7310 2 19.062 6.385 6.4 6.02464 -140183 -129783 -59771.3 -24049.4 19392.4 -22539.8 -7.41666 
7312 2 19.094 3.929 6.4 6.02362 -146389 -149339 -66895.7 -9971.79 18414.7 -20239 -7.416 
7314 2 19.125 1.473 6.4 6.02433 -141048 -165127 -74010.7 -3374.8 15679.2 -17843.3 -7.41615 
1368 1 19.251 8.35 3 6.02464 -116324 -118666 -93830.7 9276.66 -361.458 -7419.33 -7.41437 
1369 1 19.945 7.113 3 6.02413 -178363 -115095 -55610 -14732.7 19171.3 -23566.5 -7.41719 
1370 1 19.22 5.894 3 6.02931 -123467 -136267 -90852.6 24735.8 -3481.4 -9861.5 -7.41475 
1371 1 19.913 4.657 3 6.02877 -134759 -133698 -62835.9 383.849 18796.3 -21510.1 -7.41648 
1372 1 19.188 3.438 3 6.02417 -127107 -132229 -86479.4 24290.8 -7438.43 -12599.3 -7.41533 
1373 1 19.881 2.201 3 6.02217 -140520 -151838 -70480.4 -17915.8 16635.4 -19452.7 -7.41596 
1374 1 19.157 0.982 3 6.02337 -140816 -163540 -80892.4 13499.3 -11727.2 -15288.6 -7.41538 
1503 1 22.087 8.313 3 6.02335 -145797 -168813 -46900.3 -22431.4 22123.6 -23692.5 -7.41734 
1504 1 21.362 7.095 3 6.02292 -169575 -150645 -91630.2 -10004.6 -4112.21 -7166.18 -7.41528 
1505 1 22.056 5.858 3 6.02221 -175738 -117981 -54684.5 -18985.3 22111.7 -20305.4 -7.41698 
1506 1 21.331 4.639 3 6.02699 -125769 -135576 -87507.1 22569.4 -7864.27 -8646.06 -7.41467 
1507 1 22.024 3.402 3 6.02498 -131966 -135414 -63013 -213.745 20529.6 -17320.1 -7.41638 
1508 1 21.299 2.183 3 6.02465 -119367 -118437 -81278.7 11660.8 -12020.1 -10563.1 -7.41524 
1509 1 21.993 0.946 3 6.02451 -173838 -129903 -71149 -21535.3 17335.2 -14603.3 -7.4161 
1638 1 23.505 8.295 3 6.02359 -120070 -133370 -92926.6 22891.1 -3335.69 -8078.34 -7.41472 
1639 1 24.198 7.058 3 6.02699 -139286 -135285 -46186.2 -2709.12 26291.1 -22286.6 -7.41694 
1640 1 23.473 5.839 3 6.02221 -161783 -117498 -88342.8 5666.29 -7331.12 -8210.45 -7.41512 
1641 1 24.167 4.602 3 6.02292 -182043 -150911 -55048.1 -34743.3 24852.8 -18376.7 -7.41728 
1642 1 23.442 3.384 3 6.02335 -131252 -169324 -82750.6 2570.79 -11628.6 -9065.05 -7.41535 
1643 1 24.135 2.147 3 6.0236 -130034 -136010 -64273.8 -5598.5 21813.8 -15052.9 -7.41612 
1644 1 23.41 0.928 3 6.02386 -164437 -94828.5 -75435.1 -2194.71 -16075.9 -10823.3 -7.41565 
1773 1 26.341 8.259 3 6.02413 -179313 -116387 -36760.8 -13029.1 30751.2 -26922.9 -7.41824 
1774 1 25.616 7.04 3 6.03041 -121188 -133803 -89424.7 22655.7 -5492.88 -10954.6 -7.41478 
1775 1 26.309 5.803 3 6.03041 -135618 -135736 -46492.8 -211.875 29684.1 -22296.7 -7.41716 
1776 1 25.584 4.584 3 6.02413 -163737 -114691 -83996.3 10202.5 -10227.5 -10893.7 -7.4156 
1777 1 26.278 3.347 3 6.02464 -175071 -117022 -56433.4 -14305.1 26801.5 -18457.9 -7.41676 
1778 1 25.553 2.128 3 6.02504 -124742 -135190 -77047.9 17992.1 -15326.9 -11754.4 -7.41541 
1779 1 26.246 0.891 3 6.02584 -129869 -147348 -65846.2 -8210.23 22249.9 -15422.5 -7.41634 
1908 1 27.758 8.241 3 6.02292 -167782 -150207 -89479 -11840.4 -2756.93 -15678.3 -7.41536 
1909 1 28.452 7.004 3 6.02221 -175974 -120565 -36559.6 -17106.1 34516.8 -27977.4 -7.41799 
1910 1 27.727 5.785 3 6.02699 -123348 -135008 -84738.9 20340.3 -7793.9 -15038.6 -7.41478 
1911 1 28.42 4.548 3 6.02359 -132617 -136490 -47506.7 745.958 32013.1 -23805.9 -7.41722 
1912 1 27.695 3.329 3 6.02464 -165151 -115798 -78183.9 9765.26 -13482 -15260.9 -7.41578 
1913 1 28.389 2.092 3 6.02456 -170595 -118363 -57716 -11399.4 27418.8 -20616.7 -7.41688 
1914 1 27.664 0.873 3 6.02835 -129003 -148144 -70414.6 29462 -19264.6 -16482.3 -7.41584 
7309 2 19.755 7.622 6.4 6.02546 -131105 -150470 -92847.8 13102.5 -1004.78 -8192.66 -7.41482 
7311 2 19.787 5.166 6.4 6.02417 -124623 -132448 -89300.5 1217.02 -4747.53 -11264.4 -7.41516 
7313 2 19.818 2.71 6.4 6.01968 -133574 -153232 -84220.5 19243.5 -8930.54 -14293.7 -7.41517 
7315 2 19.85 0.255 6.4 6.02372 -129972 -147326 -77823.6 31589.1 -13158.1 -17018.8 -7.41577 
7443 2 21.866 8.877 6.4 6.02134 -126871 -149091 -94063.1 14181.3 -379.976 -6424.83 -7.41508 
7444 2 21.173 7.64 6.4 6.02464 -143086 -129928 -51276 -22512.4 20942.2 -22268.3 -7.41687 
7445 2 21.898 6.421 6.4 6.02359 -119436 -134441 -90333.9 3800.18 -4213.66 -7894.21 -7.41505 
7446 2 21.205 5.184 6.4 6.02311 -152539 -183223 -58579.6 9476.84 20911.5 -18769 -7.41688 
7447 2 21.929 3.966 6.4 6.02166 -137832 -185142 -85333.2 36375.6 -8572.19 -9822.33 -7.41561 
7448 2 21.236 2.729 6.4 6.0239 -133140 -133344 -66438.7 -19223.3 19225.9 -15676.1 -7.41616 
7449 2 21.961 1.51 6.4 6.02653 -127428 -135684 -78706 805.217 -13170.2 -12138 -7.41531 
7450 2 21.268 0.273 6.4 6.02466 -132401 -147613 -74263.1 -17740.3 16024.6 -12960.9 -7.41567 
7578 2 23.284 8.895 6.4 6.02431 -140010 -150688 -42108.9 9752.64 23512.9 -25112.9 -7.41765 
7579 2 24.009 7.677 6.4 6.0248 -126163 -169804 -91655.4 19048.1 -2486.64 -8241.92 -7.41486 
7580 2 23.316 6.44 6.4 6.02246 -135730 -136417 -50214 -19675.3 23979.4 -20523.5 -7.41683 
7581 2 24.041 5.221 6.4 6.02464 -164700 -116654 -86694.2 14577.8 -7325.59 -9017.98 -7.41509 
7582 2 23.347 3.984 6.4 6.02413 -126888 -116259 -58717.5 -11539.5 22820.8 -16620.8 -7.41664 
7583 2 24.072 2.765 6.4 6.03069 -124207 -135608 -80490.2 -1427.7 -12447 -10400.9 -7.41528 
7584 2 23.379 1.528 6.4 6.02784 -130570 -135481 -67467.8 -24593 19933.1 -13292.5 -7.41595 
7585 2 24.104 0.309 6.4 6.02428 -171364 -129078 -72623.6 5962.93 -17493.8 -12438.5 -7.41614 
7713 2 26.12 8.932 6.4 6.02699 -121158 -134680 -92042.1 -83.0223 291.416 -11551.7 -7.41438 
7714 2 25.427 7.695 6.4 6.02359 -138188 -134280 -40997.1 -24249.2 27786.2 -25060.9 -7.4176 
7715 2 26.152 6.476 6.4 6.02464 -162176 -115435 -87915.4 10857.4 -4889.08 -11440.6 -7.41526 
7716 2 25.458 5.239 6.4 6.02464 -176912 -115698 -50416.4 -11833.6 26775.2 -20436.8 -7.41734 
7717 2 26.183 4.02 6.4 6.02359 -122373 -134438 -81890.7 -1202.39 -10616 -11952.5 -7.41531 
7718 2 25.49 2.783 6.4 6.02699 -133898 -135189 -59821.3 -22367.6 24183 -16560.3 -7.41617 
7719 2 26.215 1.564 6.4 6.02271 -165888 -116883 -74660.6 16965.1 -16656.6 -13292.4 -7.41594 
7720 2 25.521 0.327 6.4 6.02451 -171160 -127509 -68997.9 -2525.17 20105.8 -13640.5 -7.41657 
7848 2 27.538 8.95 6.4 6.03041 -139994 -136098 -30954.1 -23590.7 31934.4 -31087.2 -7.41804 
7849 2 28.263 7.731 6.4 6.02413 -160488 -115766 -87981.6 10432.1 -1789.03 -15958 -7.41537 
7850 2 27.569 6.494 6.4 6.02464 -179701 -117301 -40844.6 -9241.14 31286.9 -26246.3 -7.41764 
7851 2 28.294 5.275 6.4 6.0236 -119511 -137809 -82856.8 2959.94 -7859.77 -16002.5 -7.415 
7852 2 27.601 4.038 6.4 6.02335 -139736 -170584 -51391.8 -2103.45 28754 -22038.2 -7.41708 
7853 2 28.326 2.82 6.4 6.02292 -171334 -151614 -75774.4 31869.7 -14637 -16731.5 -7.41611 
7854 2 27.632 1.583 6.4 6.02221 -170098 -117273 -61048.4 -5443.05 24645.7 -18759.8 -7.41669 
7855 2 28.357 0.364 6.4 6.0251 -121931 -115305 -67542.1 12263.9 -21385.9 -18214.9 -7.41567 
2043 1 30.594 8.204 3 6.02699 -139442 -139814 -25084.1 189.62 38830.3 -33740.6 -7.41813 
2044 1 29.869 6.985 3 6.02221 -159376 -119841 -84211.2 2715.9 -4764.63 -20231.2 -7.41531 
2045 1 30.563 5.748 3 6.02431 -133834 -156058 -36805.3 -32421.7 37048 -30003.2 -7.41793 
2046 1 29.838 4.53 3 6.0248 -128035 -171585 -78443.9 1177.68 -10765.8 -20171.8 -7.41557 
2047 1 30.531 3.293 3 6.02245 -128914 -140803 -48335.9 -2986.14 32732.6 -26732.7 -7.41692 
2048 1 29.806 2.074 3 6.02466 -166460 -119279 -71014.7 6273.01 -17297.6 -20794.1 -7.41588 
2049 1 30.5 0.837 3 6.02471 -123127 -132664 -58967 -17786.3 26665.4 -24228.6 -7.41651 
2178 1 32.012 8.186 3 6.02656 -119810 -134726 -82967.6 22433.8 -1839.37 -24679.8 -7.41555 
2179 1 32.705 6.949 3 6.02628 -145248 -155562 -24906.3 -9708.78 41099.4 -35084.1 -7.41857 
2180 1 31.981 5.73 3 6.02134 -127967 -152312 -77545.4 5795.41 -7613.33 -24854.8 -7.41595 
2181 1 32.674 4.493 3 6.02464 -135574 -137558 -37150 1148.51 37744.3 -32376 -7.41765 
2182 1 31.949 3.274 3 6.02359 -120602 -137502 -70646.1 16524 -14480.6 -25355.4 -7.41609 
2183 1 32.642 2.037 3 6.02279 -145497 -187940 -49045.9 -30632.3 31968.8 -30081.9 -7.41747 
2184 1 31.918 0.819 3 6.02009 -136016 -164960 -62453.6 -26047.9 -21800 -26487.6 -7.41667 
2313 1 34.848 8.15 3 6.0239 -136720 -142702 -11354.5 -962.465 43670.9 -37814.2 -7.41924 
2314 1 34.123 6.931 3 6.02464 -124279 -137082 -75987.6 18119.9 -4867.97 -27874.3 -7.41549 
2315 1 34.816 5.694 3 6.02134 -142139 -157425 -25059.4 -8424.74 41655.3 -35932.3 -7.41868 
2316 1 34.092 4.475 3 6.02546 -131535 -154816 -69680.8 6847.89 -11374.9 -28620.3 -7.41605 
2317 1 34.785 3.238 3 6.02464 -131526 -139424 -37485.9 4407.96 36903.5 -34170.6 -7.41787 
2318 1 34.06 2.019 3 6.02471 -124525 -137727 -61555.2 19019.6 -19078.2 -29712.1 -7.41659 
2319 1 34.753 0.782 3 6.02331 -138551 -169372 -48832 -14928.1 29782.4 -32794.2 -7.41723 
2448 1 36.266 8.131 3 6.01969 -128458 -159434 -74277.9 1792.87 -2951.5 -28243.5 -7.41569 
2449 1 36.959 6.894 3 6.02431 -142641 -177535 -11467 -15576.2 44225.3 -36477.8 -7.41956 
2450 1 36.234 5.676 3 6.02431 -129523 -174285 -67899 -2496.92 -8743.17 -29606.9 -7.41638 
2451 1 36.927 4.439 3 6.01968 -138446 -162617 -24999.5 -12104 40795.6 -35618.6 -7.41843 
2452 1 36.203 3.22 3 6.02362 -133833 -158191 -60264.4 3951.96 -15968.1 -30862 -7.41633 
2453 1 36.896 1.983 3 6.02418 -128067 -142383 -37435 5461.11 34728 -34752.1 -7.41796 
2454 1 36.171 0.764 3 6.02468 -127295 -152641 -51339.9 22930.3 -24215.7 -32237.6 -7.41737 
7983 2 30.374 8.986 6.4 6.02221 -158635 -120106 -87439.2 15196.8 1281.03 -21178.5 -7.41515 
7984 2 29.68 7.749 6.4 6.02292 -185553 -153686 -30071.1 11387.9 35823.5 -32712.8 -7.41869 
7985 2 30.405 6.531 6.4 6.02335 -126766 -171764 -82362.9 18392.7 -4670.42 -21207.2 -7.41535 
7986 2 29.712 5.294 6.4 6.0236 -132555 -139875 -41141.3 -17170.1 33713.8 -28508.3 -7.41733 
7987 2 30.437 4.075 6.4 6.02464 -164980 -118542 -76198.6 11337.3 -11757.6 -21545.1 -7.41565 
7988 2 29.743 2.838 6.4 6.02413 -171563 -117691 -52089.5 -9450.22 29472.7 -25009.8 -7.41736 
7989 2 30.468 1.619 6.4 6.02783 -124018 -138389 -68179.7 -2963.36 -19315.9 -22508.8 -7.41588 
7990 2 29.775 0.382 6.4 6.02835 -130201 -150183 -62147.6 -15869 23844.5 -22411 -7.41618 
8118 2 31.791 9.005 6.4 6.02221 -177756 -124275 -17153.9 -2295.75 39912 -37917.9 -7.4191 
8119 2 32.516 7.786 6.4 6.02699 -121525 -139384 -81285.9 -1501.63 -1738.79 -25792.4 -7.41497 
8120 2 31.823 6.549 6.4 6.02498 -134356 -140127 -29543.8 -22075.4 38437.1 -34422.7 -7.41824 
8121 2 32.548 5.33 6.4 6.02464 -114067 -121418 -75378.8 9393.45 -8577.98 -26366.3 -7.41557 
8122 2 31.854 4.093 6.4 6.02464 -172813 -120984 -41300.4 -7497.44 34585 -31218.2 -7.41784 
8123 2 32.579 2.874 6.4 6.02366 -122147 -139100 -68066.7 -3767.26 -16358.7 -27116.2 -7.41606 
8124 2 31.886 1.637 6.4 6.0265 -129220 -139011 -52673.4 -20462.7 28821.7 -28460.4 -7.41672 
8125 2 32.611 0.418 6.4 6.02352 -129795 -149336 -59292.8 -4762.89 -24565.2 -28299.6 -7.41655 
8253 2 34.627 9.041 6.4 6.02628 -129642 -155464 -79882.4 9694 256.364 -28289.4 -7.4155 
8254 2 33.934 7.804 6.4 6.02656 -136439 -139375 -16396.7 -20935.6 42241.8 -38219.3 -7.4193 
8255 2 34.659 6.585 6.4 6.02417 -121709 -137345 -73992.6 -3466.53 -5721.63 -29601.5 -7.41597 
8256 2 33.966 5.348 6.4 6.02217 -142284 -157254 -29406 -3124.88 39269.7 -35687.5 -7.41827 
8257 2 34.69 4.129 6.4 6.02107 -129347 -158385 -67181.7 13693.5 -13139.8 -30551.1 -7.41606 
8258 2 33.997 2.892 6.4 6.02434 -135621 -173411 -41346 484.379 33974 -33320.4 -7.41806 
8259 2 34.722 1.674 6.4 6.02432 -132832 -171758 -58653.7 17018.8 -21584.5 -31634.5 -7.41697 
8260 2 34.029 0.437 6.4 6.01897 -130503 -135445 -52264.2 -11982.6 26884.4 -31233 -7.41671 
8388 2 36.045 9.059 6.4 6.02464 -141624 -142019 -2032.49 -15960.9 44602.9 -39095.1 -7.41966 
8389 2 36.77 7.84 6.4 6.0239 -120409 -142513 -72496 1277.08 -3829.82 -30259.5 -7.41582 
8390 2 36.077 6.603 6.4 6.02311 -150551 -194123 -16082.8 16065.3 42960.9 -37519.7 -7.41925 
8391 2 36.801 5.385 6.4 6.02311 -137078 -193498 -65761.7 29137 -10274.1 -31726.7 -7.41648 
8392 2 36.108 4.148 6.4 6.0239 -130809 -143295 -28996.4 -12614.4 38694.2 -35652.1 -7.41823 
8393 2 36.833 2.929 6.4 6.02464 -125877 -141456 -57614.8 -3552.48 -18288.3 -32919.3 -7.41651 
8394 2 36.14 1.692 6.4 6.02134 -135934 -158989 -40913.1 -5096.36 32028.3 -33862.1 -7.41774 
8395 2 36.864 0.473 6.4 6.02446 -134905 -171814 -48439 2015.67 -26763.8 -33843 -7.41751 
8524 2 38.188 7.859 6.4 6.01968 -143449 -164234 -1750.75 1377.92 45221.6 -35993.7 -7.41975 
8526 2 38.219 5.403 6.4 6.02417 -133370 -143336 -15684.2 -16424 42381.9 -34968.3 -7.41923 
8528 2 38.251 2.947 6.4 6.02546 -138246 -161400 -29017.6 -4134.52 36791.6 -33587.2 -7.41832 
8530 2 38.282 0.491 6.4 6.0246 -130050 -155567 -40206.5 -10007.6 29363.4 -32129.3 -7.41775 
2583 1 39.101 8.095 3 6.02546 -145321 -163046 2499.97 -5363.01 45054.2 -33639.3 -7.42012 
2584 1 38.377 6.876 3 6.02134 -130166 -159390 -66330.3 5585 -6862.31 -27639.1 -7.41639 
2585 1 39.07 5.639 3 6.02464 -135572 -145386 -11787.2 5313.89 43494.1 -33675.6 -7.41908 
2586 1 38.345 4.42 3 6.0239 -121733 -144713 -58660.5 12310.5 -13280.8 -29205.6 -7.41658 
2587 1 39.038 3.183 3 6.0231 -144512 -197585 -25467.4 -26910.8 38735.2 -33503 -7.41871 
2588 1 38.314 1.965 3 6.02311 -140200 -194035 -50392.4 -16945 -21047.3 -30732.3 -7.4174 
2589 1 39.007 0.728 3 6.02182 -121752 -124273 -37345.1 12381.4 31715.8 -33118.9 -7.41758 
2718 1 40.519 8.077 3 6.02464 -125035 -144090 -65734.7 15804.5 -6116.38 -22948.7 -7.4161 
2719 1 41.212 6.84 3 6.02134 -142385 -164603 1010.86 -4358.06 44722.1 -28421.3 -7.42015 
2720 1 40.488 5.621 3 6.02546 -131222 -162332 -57929.2 4298.92 -11097.6 -24755.5 -7.41674 
2721 1 41.181 4.384 3 6.02464 -131699 -146974 -13352.3 8315.48 41722.9 -28902.7 -7.41924 
2722 1 40.456 3.165 3 6.02417 -123581 -144631 -49491.3 16068.4 -18218.2 -26254.9 -7.41735 
2723 1 41.149 1.928 3 6.02362 -137312 -166057 -26364.7 -6271.11 35863 -28980.4 -7.41819 
2724 1 40.425 0.709 3 6.02337 -136179 -176628 -39967.7 4742.32 -26163.3 -27707.5 -7.41762 
2853 1 43.355 8.04 3 6.02431 -143164 -183390 13484.5 -11786.1 44649.8 -20391.8 -7.42096 
2854 1 42.63 6.822 3 6.02431 -129961 -180658 -58115.6 -5487.07 -9792.99 -17909.8 -7.41697 
2855 1 43.323 5.585 3 6.01968 -138892 -169014 -2184.59 -8370.76 43536.9 -21311.3 -7.41972 
2856 1 42.599 4.366 3 6.02362 -133233 -165071 -49794.7 903.442 -15630.3 -19379 -7.41695 
2857 1 43.292 3.129 3 6.02417 -129036 -148258 -15547 9247.4 39209.9 -21916.7 -7.41924 
2858 1 42.567 1.91 3 6.02467 -124398 -148202 -40210.4 14939.7 -23110.9 -20606 -7.4177 
2859 1 43.26 0.673 3 6.02547 -137159 -178865 -28050.9 -10137.7 32394.2 -22257.9 -7.41842 
2988 1 44.773 8.022 3 6.02134 -131070 -164044 -60151.8 1721.31 -9087.28 -9590.84 -7.41678 
2989 1 45.466 6.785 3 6.02464 -136350 -150068 8524.28 8775.03 44359.4 -11568.4 -7.42024 
2990 1 44.741 5.566 3 6.0239 -121789 -149989 -50996.9 8776.36 -13652.2 -10575.6 -7.41705 
2991 1 45.434 4.329 3 6.0231 -145278 -202680 -5974.68 -23408.1 41583.8 -12442.1 -7.41981 
2992 1 44.71 3.111 3 6.02311 -138392 -201330 -41820.6 -20165.3 -20044.3 -11783 -7.41783 
2993 1 45.403 1.874 3 6.02389 -125531 -152947 -19224.7 5083.19 36033.5 -13334 -7.41875 
2994 1 44.678 0.655 3 6.02468 -128068 -161888 -31800.3 16646.1 -27849.7 -12800.7 -7.41824 
3123 1 47.608 7.986 3 6.02299 -144193 -167773 17192.8 -1032.2 44488 -1145.5 -7.42095 
3124 1 46.884 6.767 3 6.02546 -131630 -165649 -54188.3 6.54553 -11854.7 -1423.61 -7.41698 
3125 1 47.577 5.53 3 6.02464 -132829 -150109 2258.46 11560.9 43330.1 -1851.6 -7.42012 
3126 1 46.852 4.311 3 6.02417 -123244 -148390 -44815.1 12298.7 -17317.4 -1877.7 -7.41764 
3127 1 47.545 3.074 3 6.02362 -138798 -168578 -11870.8 -2813.46 38950.2 -2717.89 -7.41905 
3128 1 46.821 1.855 3 6.02019 -131529 -168209 -35301.2 -5575.19 -24452.1 -2546.33 -7.41796 
3129 1 47.514 0.618 3 6.02461 -129341 -162411 -24013.9 1086.45 32337.7 -3481.97 -7.41867 
8523 2 38.881 9.096 6.4 6.02431 -129188 -177003 -71684.3 16839.2 -3200.33 -28102.6 -7.41621 
8525 2 38.912 6.64 6.4 6.02362 -132249 -161175 -64529.1 8953.76 -8233.18 -30078.2 -7.41612 
8527 2 38.944 4.184 6.4 6.02464 -123528 -143375 -56505.4 -6181.74 -15209 -31529.1 -7.41683 
8529 2 38.975 1.728 6.4 6.02287 -131548 -162339 -47927.6 6038.74 -23362.9 -32431 -7.41736 
8658 2 40.299 9.114 6.4 6.02134 -146081 -163603 12376.2 -2425.74 45616.5 -31348.8 -7.42082 
8659 2 41.023 7.895 6.4 6.02546 -130962 -162349 -64402.9 6324.93 -7139.19 -25697.6 -7.4164 
8660 2 40.33 6.658 6.4 6.02464 -135395 -146066 -2450.47 -15325.3 44669.8 -31049.3 -7.41986 
8661 2 41.055 5.439 6.4 6.02417 -122614 -144860 -56180.9 -6820.16 -12728.6 -27380.9 -7.41699 
8662 2 40.362 4.202 6.4 6.02362 -141152 -164359 -16429.2 -1070 40647.6 -30195.8 -7.41879 
8663 2 41.086 2.983 6.4 6.01968 -129909 -166229 -47538.4 10256.5 -19988.9 -28437.7 -7.41719 
8664 2 40.393 1.746 6.4 6.02433 -135805 -179072 -28889.6 5571.61 34181 -29027 -7.41863 
8665 2 41.118 0.528 6.4 6.02372 -128914 -158042 -37534.5 23845.6 -28210.3 -28897.9 -7.41791 
8793 2 43.134 9.15 6.4 6.02134 -130904 -162851 -65787.3 5351.43 -7044.05 -19057.6 -7.41647 
8794 2 42.441 7.913 6.4 6.02464 -138496 -148293 10480.3 -12331.8 45399.7 -24352.5 -7.42035 
8795 2 43.166 6.694 6.4 6.0239 -121503 -148824 -57101.9 -2774.73 -10907.2 -20841 -7.41671 
8796 2 42.473 5.457 6.4 6.0231 -147304 -200838 -4436.23 19690.8 43262.6 -23909.7 -7.41991 
8797 2 43.197 4.239 6.4 6.02311 -137859 -200236 -48183.8 25332 -16962.4 -21840.7 -7.41748 
8798 2 42.504 3.002 6.4 6.0239 -127793 -150297 -17687.6 -9098.54 38263 -22952.4 -7.41887 
8799 2 43.229 1.783 6.4 6.02467 -125928 -149329 -38560.3 -7304.93 -24578.8 -22324.6 -7.41755 
8800 2 42.536 0.546 6.4 6.02222 -137183 -178150 -29938.4 5250.35 31058 -21897.3 -7.41831 
8928 2 44.552 9.168 6.4 6.0243 -146292 -184296 22571.2 6454.69 44533.2 -15642.6 -7.42124 
8929 2 45.277 7.95 6.4 6.02261 -130236 -181676 -59250.6 11856.9 -9749.89 -12712.6 -7.41692 