ITEM: TIMESTEP
0
ITEM: NUMBER OF ATOMS
6536
ITEM: BOX BOUNDS pp pp pp
0.0000000000000000e+00 7.0200368299999994e+01
0.0000000000000000e+00 1.2159060500000000e+02
0.0000000000000000e+00 1.5000000000000000e+01
ITEM: ATOMS id type x y z c_csym c_2[1] c_2[2] c_2[3] c_2[4] c_2[5] c_2[6] c_3 
109 1 0.172 9.822 3 6.02026 -106817 -154320 -83409 14052.2 42483.5 -2648.9 -7.41524 
110 1 0.859 8.582 3 6.0272 -155762 -161183 -102465 -6635.07 32992 -2928.35 -7.41432 
111 1 0.129 7.367 3 6.02457 -116929 -183767 -98867.7 -5395.71 44631.3 -2438.54 -7.41449 
112 1 0.816 6.127 3 6.02091 -143022 -130140 -110507 11857.2 36112 -4244.34 -7.41391 
113 1 0.086 4.911 3 6.02214 -155330 -145915 -112498 14777.6 38175.6 -1464.17 -7.41416 
114 1 0.773 3.671 3 6.02542 -148627 -162846 -119035 -4580.95 28502.8 -5941.2 -7.41375 
115 1 0.043 2.456 3 6.02189 -160613 -141268 -122273 -16855.1 22096.7 -592.611 -7.41327 
116 1 0.73 1.215 3 6.02027 -135959 -134235 -124669 -20091.9 10932.8 -6675.33 -7.41309 
117 1 0 0 3 6.02658 -165076 -149594 -125649 -12474.5 24.1807 -20.5856 -7.41339 
209 1 3.007 9.773 3 6.02402 -145655 -125525 -95605.8 9490.9 24892.7 -12313.9 -7.41507 
210 1 2.277 8.557 3 6.02234 -125835 -151265 -91195.9 18380.5 43093.6 -8537.45 -7.41493 
211 1 2.964 7.317 3 6.0247 -149962 -164168 -102376 -8417 32045.9 -16771.9 -7.41474 
212 1 2.234 6.102 3 6.02677 -136542 -181136 -105508 -1084.95 41312.7 -12689 -7.41412 
213 1 2.921 4.862 3 6.0199 -135632 -134143 -110610 10747.3 30518.5 -21398.9 -7.41431 
214 1 2.191 3.646 3 6.02402 -127312 -144609 -116769 18184.1 30006 -16122 -7.41356 
215 1 2.878 2.406 3 6.0247 -139838 -170502 -118294 -7795.61 18962.9 -24415.3 -7.41395 
216 1 2.148 1.191 3 6.02242 -125886 -140330 -122694 -20727.6 10520.7 -18098.6 -7.4129 
308 1 4.425 9.748 3 6.02721 -126255 -168070 -85117.3 -8608.08 35996.5 -8094.65 -7.41541 
309 1 5.113 8.508 3 6.02107 -173860 -100525 -90682 10784.4 23774.5 -23264.1 -7.41518 
310 1 4.382 7.292 3 6.02225 -107222 -121559 -97571.1 22682.3 37797.4 -16155.1 -7.41423 
311 1 5.07 6.052 3 6.02406 -180772 -138318 -97983.9 -8884.4 27325.1 -30051.9 -7.41453 
312 1 4.339 4.837 3 6.02611 -118244 -151747 -108315 3190.77 31922.1 -23749.5 -7.41362 
313 1 5.027 3.597 3 6.02137 -166029 -108597 -106196 9829.59 22551.7 -35536.8 -7.41411 
314 1 4.296 2.381 3 6.02369 -110730 -114239 -115018 21963.5 17525.1 -29311 -7.41334 
315 1 4.984 1.141 3 6.02466 -166941 -122877 -112207 208.365 9729.28 -37994.2 -7.41382 
407 1 7.261 9.698 3 6.01959 -178584 -101893 -78441.8 -23085.7 14402 -25243.7 -7.41524 
408 1 6.53 8.483 3 6.02433 -164198 -150484 -91990.4 8251.48 29301.6 -12757.9 -7.41523 
409 1 7.218 7.243 3 6.0238 -173266 -104946 -83626.9 8807.11 20711.5 -31775 -7.41533 
410 1 6.487 6.027 3 6.02137 -155357 -118865 -100293 26225.7 27709.3 -22494.5 -7.41447 
411 1 7.175 4.787 3 6.02406 -179541 -141014 -91108.9 -11455.7 21433.5 -38232.2 -7.41489 
412 1 6.444 3.572 3 6.02406 -167071 -149730 -106475 6502.81 19136.6 -30963.2 -7.41409 
413 1 7.132 2.332 3 6.02137 -164156 -112270 -98760.8 6896.33 15007.2 -42450.7 -7.41447 
414 1 6.401 1.116 3 6.02195 -163682 -127134 -108158 31487.7 4462.44 -36752.4 -7.41405 
506 1 8.678 9.674 3 6.01959 -156271 -118846 -89442.1 -5999.57 19360.2 -6148.97 -7.41467 
507 1 9.366 8.433 3 6.02088 -129941 -106106 -69658.1 -25186.5 13891.6 -29740.5 -7.41534 
508 1 8.635 7.218 3 6.02406 -162823 -149768 -95404.6 10124 19577.1 -15476 -7.41507 
509 1 9.323 5.978 3 6.02545 -123134 -109832 -75765.7 5516.01 17803.3 -34816.7 -7.41537 
510 1 8.592 4.762 3 6.02137 -154545 -118842 -99615.8 27929.8 15370.8 -24586.1 -7.41452 
511 1 9.28 3.522 3 6.02611 -129029 -145770 -83483.1 -14817.9 16580.1 -38993.4 -7.41492 
512 1 8.549 2.307 3 6.02152 -166627 -149400 -100222 7740.83 5988.12 -32146.5 -7.41459 
513 1 9.237 1.067 3 6.0246 -127781 -143775 -91559.4 -17372.5 10252.1 -40123 -7.41465 
3282 2 0.559 8.607 6.4 6.02028 -167949 -154687 -91239.5 15972.5 43782 545.931 -7.4155 
3283 2 0.601 6.151 6.4 6.02005 -115412 -140110 -106093 -12790.4 42135 -1712.9 -7.4142 
3284 2 0.644 3.696 6.4 6.02462 -126531 -167491 -118044 6453.42 30664.7 -4331.03 -7.41372 
3285 2 0.687 1.24 6.4 6.02167 -123140 -134518 -124566 -18278.8 11203.2 -6211.65 -7.41345 
3286 2 0 0 6.4 6.02711 -164862 -150605 -125633 -8934.21 -22.3891 24.6276 -7.4134 
3377 2 2.664 9.872 6.4 6.02385 -156719 -121479 -83819.5 -11347.2 37839.7 -2074.24 -7.41532 
3378 2 1.976 8.632 6.4 6.02211 -177731 -95885 -100506 -14552.2 33327.7 -12873.3 -7.41454 
3379 2 2.707 7.416 6.4 6.02137 -154640 -121433 -97998 -9725.22 39657.2 -8784.91 -7.41455 
3380 2 2.019 6.176 6.4 6.02672 -132737 -135953 -108280 3470.24 36549.3 -15772.7 -7.41376 
3381 2 2.75 4.961 6.4 6.02406 -164751 -151745 -110861 8949.56 33732.3 -15848.3 -7.41384 
3382 2 2.062 3.721 6.4 6.02175 -117804 -106183 -116550 -16662.5 28888.4 -18044 -7.41334 
3383 2 2.793 2.505 6.4 6.0238 -156138 -115385 -118927 -10739.5 19209.7 -21679 -7.41341 
3384 2 2.105 1.265 6.4 6.02715 -123089 -140466 -122372 -601.34 11540.5 -18723.8 -7.41322 
3385 2 2.836 0.05 6.4 6.01807 -164072 -122980 -121373 15005.8 -347.132 -24762.8 -7.41341 
3476 2 4.081 9.897 6.4 6.02385 -177024 -97739.5 -91642.4 -17915.2 25673.8 -19000.8 -7.41492 
3477 2 4.812 8.681 6.4 6.02217 -106736 -123678 -90850.4 -6862.44 32155.7 -8874.11 -7.41448 
3478 2 4.124 7.441 6.4 6.02406 -183784 -134789 -97567.8 2114.08 32920.5 -24667.9 -7.41456 
3479 2 4.855 6.226 6.4 6.02433 -165108 -152658 -101925 12267.8 30498.9 -19373.3 -7.41432 
3480 2 4.167 4.986 6.4 6.02137 -170260 -104377 -105439 -19256.4 31668.8 -29427.8 -7.41416 
3481 2 4.898 3.77 6.4 6.0238 -156233 -117035 -110512 -7235.79 21958.5 -29041 -7.4139 
3482 2 4.21 2.53 6.4 6.02406 -175294 -137722 -112926 -2993.93 20330.5 -32307.1 -7.41409 
3483 2 4.941 1.315 6.4 6.01959 -161939 -114255 -113983 23553.8 6939.32 -35776.3 -7.41328 
3484 2 4.253 0.074 6.4 6.01902 -167644 -121173 -116657 15294.7 1871.72 -32352.5 -7.41357 
3575 2 6.917 9.947 6.4 6.02009 -125788 -149595 -86344.6 28529 22607 -4290.8 -7.4151 
3576 2 6.23 8.706 6.4 6.02137 -144215 -133239 -85280.1 18483.9 24965.5 -27184.3 -7.41509 
3577 2 6.96 7.491 6.4 6.02676 -127191 -166365 -95432.5 28096.3 23096 -15431.9 -7.41464 
3578 2 6.272 6.251 6.4 6.01864 -171354 -104116 -91317.4 -20597.3 28738.4 -33136.5 -7.41513 
3579 2 7.003 5.035 6.4 6.02545 -106969 -120172 -102252 -3902.98 18972 -27132.9 -7.414 
3580 2 6.315 3.795 6.4 6.02406 -176845 -139278 -98891.4 -4738.23 24384.1 -37444 -7.41483 
3581 2 7.046 2.58 6.4 6.02088 -112943 -117305 -105487 27199.2 9415.72 -36769.3 -7.41345 
3582 2 6.358 1.339 6.4 6.0189 -167023 -110200 -105248 7654.37 11850.8 -38979.9 -7.41387 
3583 2 7.089 0.124 6.4 6.02504 -117781 -126154 -104327 21898.9 -3417.11 -42124.3 -7.41389 
3674 2 8.335 9.971 6.4 6.02186 -150038 -130936 -73032 11153.3 15695.5 -26686.6 -7.41553 
3675 2 9.065 8.756 6.4 6.02615 -132806 -178772 -91922.5 14501 14930.1 -7931.24 -7.41525 
3676 2 8.378 7.516 6.4 6.02265 -142157 -135091 -76889.6 -19358.2 22362.1 -31262.5 -7.41591 
3677 2 9.108 6.3 6.4 6.02402 -124148 -148141 -96916.6 -1973.24 13231.4 -18819.6 -7.41468 
3678 2 8.421 5.06 6.4 6.0247 -146201 -168931 -83356.8 -4648.61 23443 -35405.1 -7.41608 
3679 2 9.151 3.845 6.4 6.02186 -130041 -146423 -98655.8 29707.1 7667.54 -29244.2 -7.41422 
3680 2 8.464 2.604 6.4 6.02106 -135752 -141021 -91150.1 7997.06 17569.5 -37608.2 -7.41499 
3681 2 9.194 1.389 6.4 6.02623 -138410 -176879 -96820.4 15299.1 -899.158 -36884.2 -7.41493 
3682 2 8.507 0.149 6.4 6.02226 -130890 -160563 -97097 -16526.4 6413.56 -36617.9 -7.41475 
605 1 11.514 9.624 3 6.02676 -146391 -151726 -57198 -26030.6 9881.91 -28293.5 -7.4169 
606 1 10.784 8.409 3 6.0196 -122235 -148135 -93759.4 -5977.93 11264.4 -7551.45 -7.41468 
607 1 11.471 7.168 3 6.02186 -147024 -137147 -61726.1 -28221.5 14639.9 -29792 -7.41614 
608 1 10.741 5.953 3 6.0247 -130016 -177176 -95914.8 9314.48 9240.09 -14876.3 -7.41547 
609 1 11.428 4.713 3 6.02402 -139508 -140569 -69181.7 2551.57 16456.8 -31862.8 -7.41611 
610 1 10.698 3.497 3 6.0199 -122427 -146664 -94981.4 27033.3 3744.52 -21966.4 -7.4152 
611 1 11.385 2.257 3 6.02721 -146145 -174498 -78108.4 -17455.7 14234.8 -32684.5 -7.41566 
612 1 10.655 1.042 3 6.02298 -132257 -158033 -90856.2 -6012.54 -4656.29 -27576.3 -7.4151 
704 1 12.932 9.599 3 6.02265 -119455 -143609 -94496.2 23460.1 5808.21 -3618.51 -7.41498 
705 1 13.619 8.359 3 6.02615 -154065 -168323 -49291 -15412.8 14254.4 -27877.3 -7.41751 
706 1 12.889 7.144 3 6.02186 -127011 -142824 -95402.8 -5156.76 3737.28 -7433.72 -7.41438 
707 1 13.576 5.903 3 6.02186 -145053 -139281 -56232.3 -29922.7 17258.6 -26260.5 -7.41644 
708 1 12.846 4.688 3 6.02615 -135207 -174152 -93154.9 9509.74 99.8472 -12089.6 -7.41518 
709 1 13.533 3.448 3 6.02265 -137078 -141962 -65779.7 1119.6 17309.1 -25036.3 -7.41629 
710 1 12.803 2.232 3 6.02402 -129220 -142425 -88095.1 27125.2 -5654.56 -16759.8 -7.41521 
711 1 13.49 0.992 3 6.02516 -137672 -154999 -75604.4 -6671.39 13988.6 -23012.2 -7.4158 
803 1 15.767 9.55 3 6.02127 -145064 -139114 -37196.8 1745.5 17099.5 -31094.7 -7.41788 
804 1 15.037 8.334 3 6.02265 -121646 -141226 -96313.2 25212.5 1325.63 -5687.19 -7.41466 
805 1 15.724 7.094 3 6.02615 -152450 -170296 -44504.5 -16456.5 20302.7 -25708.8 -7.41778 
806 1 14.994 5.879 3 6.02186 -127322 -140992 -93708 -5415.02 -2289.42 -6961.92 -7.41444 
807 1 15.681 4.638 3 6.02186 -142730 -140449 -54168.8 -30640 21288.1 -21475.2 -7.41655 
808 1 14.951 3.423 3 6.02615 -136096 -172414 -88271.3 9151.1 -6987.1 -9309.55 -7.41542 
809 1 15.638 2.183 3 6.02265 -133825 -143197 -65287.2 709.935 19174.9 -17996.5 -7.41627 
810 1 14.908 0.967 3 6.0255 -134505 -154668 -80343.2 34472.9 -12652.2 -12404 -7.41555 
902 1 17.185 9.525 3 6.02616 -131071 -172975 -96745.1 5077.57 2527.39 -9613.94 -7.41455 
903 1 17.872 8.285 3 6.02127 -143755 -141319 -31916 1397.6 25161.1 -30620.3 -7.41819 
904 1 17.142 7.069 3 6.02265 -121868 -140269 -94741.4 24911.7 -1799.55 -8314.98 -7.41472 
905 1 17.829 5.829 3 6.02615 -150255 -171769 -42642.1 -16439 26665.9 -23920.2 -7.41789 
906 1 17.099 4.614 3 6.02186 -127951 -139928 -89863.8 -5948.87 -6720.65 -8053.73 -7.41462 
907 1 17.786 3.373 3 6.02106 -137664 -141609 -54807 -32017.3 25179.2 -18475 -7.41673 
908 1 17.056 2.158 3 6.02623 -136658 -172293 -81937.8 8623.02 -12513.6 -9261.16 -7.41568 
909 1 17.743 0.918 3 6.02225 -130308 -157243 -67359.9 -6318.22 20555.9 -14247.3 -7.41654 
1001 1 20.02 9.475 3 6.0247 -150501 -177828 -16975.8 -16840.4 30186.5 -38170.4 -7.41945 
1002 1 19.29 8.26 3 6.02677 -131264 -173342 -94667.3 4892.64 1213.16 -14176.9 -7.41465 
1003 1 19.977 7.02 3 6.0199 -137086 -144446 -29313.2 1987.61 32623.2 -30751.5 -7.41877 
1004 1 19.247 5.804 3 6.02402 -122370 -140462 -90663.5 24401.5 -4196.28 -12544.4 -7.41492 
1005 1 19.934 4.564 3 6.0247 -142726 -176263 -42859.5 -15908.8 31883.6 -24239.4 -7.41809 
1006 1 19.204 3.349 3 6.02194 -120092 -126188 -83514.4 -19142.6 -10657.4 -12055.1 -7.41475 
1007 1 19.892 2.108 3 6.01607 -166125 -110475 -56659 -27574.6 27474.8 -19128.2 -7.41668 
1008 1 19.161 0.893 3 6.02504 -115436 -123806 -73358.2 -954.191 -17693 -13333.2 -7.41551 
3773 2 11.17 10.021 6.4 6.02615 -131421 -176221 -91871.1 14188.9 9393.26 -1683.41 -7.41523 
3774 2 10.483 8.781 6.4 6.02265 -145382 -134890 -63397.6 -22767.3 15454.6 -28522.3 -7.41642 
3775 2 11.213 7.565 6.4 6.02265 -122556 -146353 -94782.3 -2087.25 7725.57 -9278.69 -7.41478 
3776 2 10.526 6.325 6.4 6.02615 -152771 -167758 -68661.4 -6248.75 19958.6 -30206.5 -7.41645 
3777 2 11.256 5.11 6.4 6.02186 -128333 -145530 -95264.5 30095.8 4273.26 -17928.7 -7.4144 
3778 2 10.569 3.869 6.4 6.02186 -142805 -139559 -76200.5 6665.84 19311.2 -31403.4 -7.41537 
3779 2 11.299 2.654 6.4 6.02615 -137060 -176073 -92357.1 16396.5 -1519.25 -25670.9 -7.41522 
3780 2 10.612 1.414 6.4 6.02265 -133881 -143762 -84352 -25704.6 13560.6 -30720.8 -7.41527 
3781 2 11.342 0.198 6.4 6.0255 -135418 -157186 -86289 -8830.72 -8432.16 -30894.9 -7.41524 
3872 2 12.588 10.046 6.4 6.02265 -146025 -135379 -51312.5 -23963.7 11083.7 -28995.8 -7.41708 
3873 2 13.318 8.83 6.4 6.02127 -121134 -143632 -95430.3 -2892.46 5146.9 -3668.11 -7.41472 
3874 2 12.631 7.59 6.4 6.02615 -155792 -168024 -55424.6 -5739.69 16537.1 -27027.2 -7.41692 
3875 2 13.361 6.375 6.4 6.02368 -125879 -143193 -94703.7 34534.2 1833.87 -8691.78 -7.4144 
3876 2 12.674 5.134 6.4 6.02009 -143321 -138313 -62734.6 7505.79 19154.5 -25486.1 -7.41634 
3877 2 13.404 3.919 6.4 6.02615 -135022 -174584 -91175.4 16182.1 -2752.41 -14394.3 -7.41528 
3878 2 12.717 2.679 6.4 6.02265 -136659 -141707 -71441.2 -26479.2 17520.2 -23559.5 -7.416 
3879 2 13.447 1.463 6.4 6.02402 -129337 -142745 -84660.2 -839.623 -8540.36 -19465.4 -7.41538 
3880 2 12.76 0.223 6.4 6.02516 -137320 -154761 -80569.7 -19423.2 12322.3 -20739.4 -7.41555 
3971 2 15.423 10.095 6.4 6.0199 -115614 -142459 -96364.8 -3534.62 6329.62 -4106.76 -7.41506 
3972 2 14.736 8.855 6.4 6.02677 -155479 -170798 -43296.2 -6119.15 15664.4 -28734.8 -7.41749 
3973 2 15.466 7.64 6.4 6.0247 -126610 -175894 -95912.5 16597.1 2182.55 -5354.47 -7.41505 
3974 2 14.779 6.4 6.4 6.02234 -143182 -139626 -50222.2 -26213.5 19508.4 -23929.4 -7.41702 
3975 2 15.509 5.184 6.4 6.02465 -122925 -140711 -92149.8 -542.719 -2614.55 -7855.43 -7.4151 
3976 2 14.822 3.944 6.4 6.02402 -140122 -138147 -59761.8 -26720.1 20323.7 -19701 -7.41675 
3977 2 15.552 2.728 6.4 6.02127 -126052 -142773 -85614 -1629.63 -8419.71 -11168.5 -7.41523 
3978 2 14.865 1.488 6.4 6.02615 -145213 -173315 -70110 -7710.43 17633.5 -15877.8 -7.41609 
3979 2 15.595 0.273 6.4 6.02383 -134139 -155708 -76324.5 29823.4 -14481.1 -14596.1 -7.41563 
4070 2 16.841 10.12 6.4 6.02611 -137888 -144048 -30627.8 -6662.53 18025.1 -35077 -7.41785 
4071 2 17.572 8.905 6.4 6.02406 -158661 -145456 -96539.5 14223.9 5202.99 -8267.15 -7.41456 
4072 2 16.884 7.665 6.4 6.02225 -125357 -111736 -37942.4 -27142.4 21934.2 -28018.7 -7.41746 
4073 2 17.615 6.449 6.4 6.02102 -151308 -108422 -93600.8 -4451.69 -190.318 -8091.59 -7.4151 
4074 2 16.927 5.209 6.4 6.02721 -133819 -124343 -48111.3 -14358.5 23714.7 -21543.2 -7.41708 
4075 2 17.657 3.993 6.4 6.0199 -119610 -144883 -87484.6 -2124.5 -6623.09 -9017.7 -7.4152 
4076 2 16.97 2.753 6.4 6.02677 -146173 -174033 -59821.4 -7293.5 22386.5 -16093.9 -7.41657 
4077 2 17.7 1.538 6.4 6.0247 -132105 -176981 -78618.3 17304.7 -13854.9 -11121.9 -7.41591 
4078 2 17.013 0.298 6.4 6.0246 -134954 -155399 -71441.2 -18670.4 18248.7 -11943.4 -7.41589 
4170 2 18.989 8.93 6.4 6.02137 -174775 -112274 -24323.3 -27009.1 26316.5 -35651 -7.41863 
4171 2 19.72 7.714 6.4 6.0238 -150017 -111906 -93697.1 -5526.01 3904.79 -13395.5 -7.41474 
4172 2 19.032 6.474 6.4 6.02433 -181362 -142265 -35503.3 -10212.3 28504.6 -28313.8 -7.41831 
4173 2 19.763 5.259 6.4 6.01959 -153319 -111349 -88668.1 28770 -3018.43 -12963.7 -7.41489 
4174 2 19.075 4.018 6.4 6.02371 -122288 -112604 -48302.2 9552.6 27790 -21723.8 -7.4165 
4175 2 19.806 2.803 6.4 6.02406 -164527 -144232 -80491.1 13998.6 -11326.1 -13539.1 -7.41554 
4176 2 19.118 1.563 6.4 6.02225 -113814 -114430 -61290.2 -26417.9 23917.8 -16622.4 -7.4161 
4177 2 19.849 0.347 6.4 6.02195 -161395 -126564 -69623.8 -12095.3 -20049.7 -15568.7 -7.41608 
1100 1 21.438 9.45 3 6.02225 -102645 -114104 -93155.9 25430.6 4867.13 -20656.3 -7.41439 
1101 1 22.126 8.21 3 6.02406 -181553 -151091 -12896.3 -13992.8 37231.5 -38164.4 -7.41926 
1102 1 21.395 6.995 3 6.02611 -113031 -146770 -89811.3 5250.46 -298.683 -19424.3 -7.41453 
1103 1 22.083 5.755 3 6.02137 -167373 -117514 -28174.6 5161.5 38094.1 -32168 -7.4184 
1104 1 21.352 4.539 3 6.0246 -104423 -113983 -83689.5 24448.7 -7035.03 -18485.3 -7.4149 
1105 1 22.04 3.299 3 6.02406 -173279 -146257 -43888.1 -13082.8 34691.7 -27055.5 -7.41781 
1106 1 21.309 2.084 3 6.02097 -158702 -113233 -74595.1 -5974.89 -15086.3 -18700 -7.41535 
1107 1 21.997 0.843 3 6.01792 -165855 -125095 -58580 -31208.2 27214.2 -23253.2 -7.41668 
1199 1 24.274 9.401 3 6.0238 -173975 -120462 6200.04 7715.01 38592.7 -41934.7 -7.4204 
1200 1 23.543 8.185 3 6.02137 -151166 -115315 -87832.2 25689.8 2943.83 -24567.6 -7.41505 
1201 1 24.231 6.945 3 6.02433 -180178 -152705 -10752 -12292.4 42051.2 -38069.4 -7.41937 
1202 1 23.5 5.73 3 6.02406 -161182 -148752 -82275 4240.48 -2937.12 -24696.8 -7.41531 
1203 1 24.188 4.49 3 6.02217 -117281 -120317 -28284.5 6335.39 40733.2 -34245.6 -7.41801 
1204 1 23.457 3.274 3 6.0238 -152140 -116716 -74058.8 24276.3 -11179.4 -24997.9 -7.4158 
1205 1 24.145 2.034 3 6.0261 -121834 -150618 -44739.4 -10978 34455.9 -31081.5 -7.41735 
1206 1 23.414 0.819 3 6.02085 -160125 -130169 -63284 -1620.18 -20816.9 -26311.3 -7.4163 
1298 1 25.691 9.376 3 6.02406 -160871 -149550 -86298.4 8600.73 3798.26 -25023.9 -7.41548 
1299 1 26.379 8.136 3 6.02545 -123453 -124623 9170.24 8612.91 42390.9 -38783.8 -7.42018 
1300 1 25.648 6.92 3 6.01864 -150637 -117848 -79886.7 24301.8 -258.63 -27165.3 -7.41571 
1301 1 26.336 5.68 3 6.02677 -138940 -171180 -10025.8 -24375 44225.5 -37219.6 -7.4192 
1302 1 25.606 4.465 3 6.02385 -128162 -184200 -72009.8 2013.31 -7184.55 -28548.3 -7.4161 
1303 1 26.293 3.225 3 6.02234 -132581 -151523 -28595.2 7603.84 40347.8 -35525 -7.41836 
1304 1 25.563 2.009 3 6.02265 -120981 -148114 -62090.6 21244.6 -16870.4 -30018.1 -7.41698 
1305 1 26.25 0.769 3 6.02768 -133072 -162513 -44755 58.7764 31528.4 -33978.6 -7.41748 
1397 1 28.527 9.326 3 6.02186 -147426 -154782 30156 -21412.5 39319.1 -33325.8 -7.42138 
1398 1 27.797 8.111 3 6.0247 -128412 -181957 -78742.1 5275.5 -86.5597 -24269.3 -7.41634 
1399 1 28.484 6.871 3 6.02402 -139198 -155431 9590.8 9633.62 44437.3 -34004.9 -7.42054 
1400 1 27.754 5.655 3 6.02127 -120488 -151958 -69783.4 19719.2 -4766.09 -27018.1 -7.4163 
1401 1 28.441 4.415 3 6.02615 -144432 -188237 -10572.1 -10017.9 43924.3 -34140.7 -7.41933 
1402 1 27.711 3.2 3 6.02616 -133685 -185080 -59953.8 951.777 -12987.4 -29297.2 -7.41656 
1403 1 28.398 1.96 3 6.02127 -128918 -155752 -28736.1 9310.65 37544.5 -33937.4 -7.4183 
1404 1 27.668 0.744 3 6.0255 -130474 -164998 -48097.7 27375.9 -23784.8 -31351.7 -7.41729 
1496 1 29.945 9.302 3 6.02186 -128270 -151539 -80458 -9696.93 -2450.01 -17062.9 -7.41517 
1498 1 29.902 6.846 3 6.02615 -133417 -183972 -69365.3 3070.81 -4478.45 -20472.6 -7.41646 
1500 1 29.859 4.39 3 6.02127 -123245 -155022 -58732 19438 -10287.5 -23103.2 -7.41671 
1502 1 29.816 1.935 3 6.02615 -133912 -189825 -46920.5 -788.866 -19688.9 -25383.5 -7.41725 
4269 2 21.825 8.979 6.4 6.02545 -101963 -115169 -92175.4 -4575.52 7633.75 -19908 -7.41444 
4270 2 21.137 7.739 6.4 6.02406 -181621 -145974 -20334.1 -8768.37 33949.6 -36683.4 -7.41919 
4271 2 21.868 6.524 6.4 6.02088 -106348 -114259 -87941.5 26077.3 1295.68 -19709.3 -7.41431 
4272 2 21.18 5.283 6.4 6.01959 -171461 -114712 -34491 4978.31 33872.3 -30311.1 -7.41767 
4273 2 21.911 4.068 6.4 6.02549 -114044 -145292 -81032 11840.3 -7287.54 -19893.2 -7.41538 
4274 2 21.223 2.828 6.4 6.0238 -163509 -114487 -49205.4 -25199.4 30188.9 -24778.6 -7.41718 
4275 2 21.954 1.612 6.4 6.02284 -156062 -112928 -71074.6 -6100.57 -17319.7 -20868.3 -7.41604 
4276 2 21.266 0.372 6.4 6.02466 -164416 -124964 -63048.9 -18203 23433.1 -20792.8 -7.41644 
4368 2 23.243 9.004 6.4 6.0247 -149985 -178776 -2242.75 -5079.15 38299.4 -42368.1 -7.42067 
4369 2 23.973 7.789 6.4 6.02186 -125073 -145124 -86059.9 26879.1 4328.23 -25196.8 -7.41479 
4370 2 23.286 6.548 6.4 6.02106 -140059 -147157 -18183.9 8364.75 39569.2 -37851.3 -7.41904 
4371 2 24.016 5.333 6.4 6.02721 -131672 -176170 -79834 11965.6 -3060.63 -26284.3 -7.41583 
4372 2 23.329 4.093 6.4 6.02128 -131285 -149346 -34383.9 -22649.4 36812.4 -33134.5 -7.41825 
4373 2 24.059 2.877 6.4 6.02407 -114832 -132448 -70782 6495.13 -13167 -27284.2 -7.41581 
4374 2 23.371 1.637 6.4 6.02153 -169029 -146719 -49853.8 -6620.5 30091.3 -29108.2 -7.41763 
4375 2 24.102 0.422 6.4 6.02144 -112997 -132047 -59005.4 19043.9 -24456.9 -28735.2 -7.41618 
4467 2 26.078 9.054 6.4 6.02186 -125981 -148130 -84889 27029.7 4632.39 -26243.1 -7.41488 
4468 2 25.391 7.813 6.4 6.02186 -146194 -149783 1244.93 10335.9 43150.8 -40924.2 -7.41974 
4469 2 26.121 6.598 6.4 6.02615 -131724 -179393 -77708.1 11677.5 -472.519 -29255 -7.41596 
4470 2 25.434 5.358 6.4 6.02265 -137687 -150117 -16704.9 -21298.7 42441.5 -38154 -7.41905 
4471 2 26.164 4.142 6.4 6.02265 -122461 -149699 -69298 -6869.14 -8966.68 -31175 -7.4161 
4472 2 25.477 2.902 6.4 6.0247 -140405 -180178 -34106.8 -2103.95 36892.3 -34997.7 -7.41859 
4473 2 26.207 1.687 6.4 6.02186 -127888 -150442 -58313.6 23825.6 -20096.5 -32666.3 -7.41627 
4474 2 25.52 0.446 6.4 6.02168 -130206 -160198 -49471.7 15826.8 27597.7 -32142 -7.41762 
4566 2 27.496 9.078 6.4 6.02186 -147618 -153119 22391.1 12473.5 43147 -37909.6 -7.42095 
4567 2 28.226 7.863 6.4 6.02615 -132599 -182094 -77141 11232.8 -517.906 -26942.2 -7.41601 
4568 2 27.539 6.623 6.4 6.02265 -139344 -153766 3082.54 -19329.3 45424.9 -37426.8 -7.42019 
4569 2 28.269 5.407 6.4 6.02127 -122418 -152781 -67559.6 -7597.84 -6292.87 -30291.4 -7.41622 
4570 2 27.582 4.167 6.4 6.02615 -146006 -184054 -16136.4 -293.965 42409.4 -35864.7 -7.41914 
4571 2 28.312 2.952 6.4 6.02368 -126530 -152644 -57017.3 27846.7 -15682 -32265.8 -7.41642 
4572 2 27.625 1.711 6.4 6.01992 -132903 -150246 -33445.1 13452 34551.1 -33579.1 -7.41803 
4573 2 28.355 0.496 6.4 6.02565 -131170 -164852 -44323.4 17777 -27084.1 -33473.1 -7.4175 
4666 2 29.644 7.888 6.4 6.02265 -141059 -156611 23197.9 -17468.9 44790 -30919.3 -7.42133 
4668 2 29.687 5.432 6.4 6.02615 -146422 -189718 2693.73 1754.23 45337.1 -30750.1 -7.42009 
4670 2 29.73 2.977 6.4 6.02127 -131941 -157065 -16544.4 -17721.6 40261.8 -29387.1 -7.41891 
4672 2 29.773 0.521 6.4 6.02404 -132079 -167945 -33218.5 -10209.8 30765.2 -27500 -7.41814 
1497 1 30.632 8.061 3 6.02186 -144860 -156976 28846.3 -19952.8 41866.9 -25074.1 -7.42127 
1499 1 30.589 5.606 3 6.02265 -136172 -158007 7312.41 11256.3 44862.1 -26523.2 -7.42039 
1501 1 30.546 3.15 3 6.02616 -141369 -190964 -12360.5 -8335.88 41644.1 -27600.7 -7.41922 
1503 1 30.503 0.695 3 6.02323 -130510 -171725 -29875.4 3154.1 33173.2 -28267.2 -7.4182 
1595 1 32.78 9.252 3 6.02615 -152557 -189118 45636 -4596.99 37828.5 -12980.1 -7.4229 
1596 1 32.05 8.037 3 6.02186 -128352 -153954 -72071.6 -12696.8 -5919.1 -10821.3 -7.41565 
1597 1 32.737 6.796 3 6.02186 -142152 -158747 23786.1 -18604.1 43797.7 -14350.9 -7.42094 
1598 1 32.007 5.581 3 6.02615 -133553 -186769 -59767.9 479.712 -8975.07 -13011.6 -7.417 
1599 1 32.694 4.341 3 6.02265 -133234 -159870 2637.19 12735.8 43860.1 -16047.6 -7.4201 
1600 1 31.964 3.125 3 6.02127 -123673 -157928 -47597.7 17285.8 -16251.6 -14851.8 -7.41733 
1601 1 32.651 1.885 3 6.02615 -139641 -191416 -16330.3 -6679.36 37876.5 -17474.3 -7.41906 
1602 1 31.921 0.67 3 6.02383 -129511 -171712 -34419.4 -14099.1 -26477.3 -16803.1 -7.41795 
1694 1 34.198 9.227 3 6.02265 -125151 -154387 -77346.8 15767.5 -7537.53 -899.252 -7.41575 
1695 1 34.885 7.987 3 6.02469 -148028 -190492 36807.5 -5185.01 41698.9 -616.313 -7.42259 
1696 1 34.155 6.772 3 6.02186 -128100 -155979 -63790.9 -15744.8 -8461.09 -1498.55 -7.41612 
1697 1 34.842 5.531 3 6.02106 -134813 -160687 14976.5 -17413.1 44590.2 -1670.23 -7.42086 
1698 1 34.112 4.316 3 6.02721 -133527 -188708 -50859.3 -1995.56 -13373.7 -2107.29 -7.41749 
1699 1 34.799 3.076 3 6.02128 -125996 -161825 -5348.77 14033 41306.8 -3216.38 -7.42007 
1700 1 34.069 1.86 3 6.02552 -125137 -158239 -37954.3 15190.4 -22227.1 -3288.97 -7.41794 
1701 1 34.756 0.62 3 6.02371 -126909 -175148 -22713.3 6024.71 32941.5 -4661.39 -7.41893 
1793 1 37.033 9.178 3 6.0199 -137739 -162130 45635.1 14598.6 39683.8 12304.8 -7.4228 
1794 1 36.303 7.962 3 6.02407 -115758 -141844 -70335.5 95.2 -7573.36 8744.85 -7.41595 
1795 1 36.991 6.722 3 6.0215 -176464 -159691 24178.4 -891.666 44560.7 12482.2 -7.42187 
1796 1 36.26 5.507 3 6.02088 -108954 -128966 -57028.1 -17577.9 -10667.2 10042.9 -7.4161 
1797 1 36.948 4.266 3 6.01959 -165367 -131195 3019.48 -14418.6 43786.2 11688.9 -7.41975 
1798 1 36.217 3.051 3 6.0261 -114986 -161285 -44279.2 -3299.3 -17878.6 10333.2 -7.41747 
1799 1 36.905 1.811 3 6.0238 -156302 -133016 -15678.7 17022.1 37219.3 10123.5 -7.41902 
1800 1 36.174 0.595 3 6.02341 -111265 -144492 -30606.7 21799.6 -27990.3 9853.65 -7.41791 
1892 1 38.451 9.153 3 6.02545 -115922 -158935 -78084 -9522.59 -5213.09 15792.4 -7.41527 
1893 1 39.139 7.913 3 6.02137 -169683 -129264 28932.5 17014 44121.7 24344.6 -7.42163 
1894 1 38.408 6.697 3 6.0238 -153054 -126621 -65478.5 11716 -7175.95 19229.6 -7.41637 
1895 1 39.096 5.457 3 6.02406 -175385 -159031 8003.29 874.529 45351.3 24427.3 -7.42073 
1896 1 38.365 4.242 3 6.01959 -156637 -127358 -53357.5 -18795.5 -13074 21200.4 -7.41665 
1897 1 39.053 3.001 3 6.02097 -164443 -128266 -11667.2 -12942.2 40736.4 23312.1 -7.41893 
1898 1 38.322 1.786 3 6.02406 -162493 -160830 -40744.3 -5118.96 -22566.9 22108.1 -7.41796 
1899 1 39.01 0.546 3 6.02551 -111804 -144277 -28580.1 10113.7 31571.8 21395 -7.4179 
4665 2 30.331 9.128 6.4 6.0247 -131577 -183871 -79187.7 11775.4 -2936.84 -20130.7 -7.41615 
4667 2 30.374 6.672 6.4 6.02127 -123149 -154845 -67949.4 -8688.46 -5659.42 -24248.6 -7.41623 
4669 2 30.417 4.217 6.4 6.02616 -133162 -189097 -56472.9 9704.28 -12240.2 -26815.4 -7.4168 
4671 2 30.46 1.761 6.4 6.02557 -125738 -155880 -44421.9 -10660.8 -22226.4 -28018.8 -7.41745 
4764 2 31.749 9.153 6.4 6.02407 -133978 -144422 42031.9 -3424.94 40872.2 -20168.5 -7.42221 
4765 2 32.479 7.937 6.4 6.0199 -119408 -158370 -71193 -10076.7 -6589.53 -14823.7 -7.41629 
4766 2 31.792 6.697 6.4 6.02677 -148440 -191816 20587.5 3360.13 45130.7 -20877 -7.4211 
4767 2 32.522 5.482 6.4 6.0247 -128924 -191367 -58547.7 8177.68 -10096 -17171.8 -7.41713 
4768 2 31.835 4.242 6.4 6.02234 -133296 -159116 -139.897 -16361.7 43763.1 -20022.9 -7.41996 
4769 2 32.565 3.026 6.4 6.02265 -120344 -157161 -46153.3 -11818.5 -17739 -18339.1 -7.41797 
4770 2 31.878 1.786 6.4 6.0276 -130266 -157954 -18786.8 -16465.9 36798.6 -18644.7 -7.41886 
4771 2 32.608 0.57 6.4 6.0255 -128227 -172708 -32569.4 -17971.5 -28046.9 -18334.3 -7.41828 
4863 2 34.585 9.202 6.4 6.02137 -154008 -125781 -77206.5 -13969.4 -7684.88 -5034.82 -7.41574 
4864 2 33.897 7.962 6.4 6.02545 -131881 -164558 35959.4 3934.19 42280.7 -8278.05 -7.4216 
4865 2 34.628 6.747 6.4 6.02406 -162487 -161734 -63399.6 4173.44 -8680.07 -5802.37 -7.41646 
4866 2 33.94 5.507 6.4 6.02225 -116958 -132193 14193.5 -15664.6 44772.5 -7610.5 -7.42039 
4867 2 34.671 4.291 6.4 6.0238 -151817 -130649 -50773.4 -15515 -13719.6 -6211.21 -7.41718 
4868 2 33.983 3.051 6.4 6.0261 -121996 -162489 -5809.24 1612.06 41152.2 -6217.04 -7.41957 
4869 2 34.714 1.836 6.4 6.01704 -155888 -127069 -37555.4 18060.6 -22629.1 -5738.53 -7.41805 
4870 2 34.026 0.595 6.4 6.02661 -116095 -124185 -23444.7 21850.6 32670.6 -4700.3 -7.41817 
4962 2 36.002 9.227 6.4 6.02406 -180889 -164163 47625.8 4284.18 37978.1 4545.25 -7.42265 
4963 2 36.733 8.012 6.4 6.02545 -116096 -160347 -70547.2 2014.77 -7196.71 4516.73 -7.41569 
4964 2 36.045 6.772 6.4 6.02137 -167037 -131318 25706 -14131.4 43798.6 5711.92 -7.42141 
4965 2 36.776 5.556 6.4 6.0238 -153217 -128144 -57758.6 -17884.9 -10003.4 5727.3 -7.4168 
4966 2 36.088 4.316 6.4 6.02406 -172551 -161181 4563.57 2231.28 43756.5 7081.2 -7.42053 
4967 2 36.819 3.101 6.4 6.01959 -157113 -128816 -45324.8 13847.5 -17042 6987.58 -7.41709 
4968 2 36.131 1.86 6.4 6.02234 -162817 -128941 -14568.4 16048.9 37778.3 8655.59 -7.41884 
4969 2 36.862 0.645 6.4 6.02338 -158215 -141108 -31646.2 12529.7 -27139.5 8362.38 -7.41846 
5061 2 38.838 9.277 6.4 6.02677 -134904 -186361 -78812.4 -458.887 -4670.83 12274.5 -7.41559 
5062 2 38.151 8.037 6.4 6.0199 -135834 -161887 33079.7 -11859.3 41541.5 17769 -7.42207 
5063 2 38.881 6.821 6.4 6.02407 -115085 -141292 -66563.9 -6606.96 -6197.52 15066.9 -7.41613 
5064 2 38.193 5.581 6.4 6.0215 -174242 -159299 11673.2 3938.48 44681.1 19374.6 -7.42114 
5065 2 38.924 4.366 6.4 6.02088 -108723 -127786 -54985.7 12363.2 -11559.1 17515.8 -7.41618 
5066 2 38.236 3.125 6.4 6.01959 -163182 -130479 -8432.15 17667.6 41649.8 20713.4 -7.41911 
5067 2 38.967 1.91 6.4 6.02557 -115054 -160653 -42759 -1004.69 -20704.6 19468.5 -7.41747 
5068 2 38.279 0.67 6.4 6.02463 -158629 -145108 -26066 -5791.75 33291.8 21851 -7.41841 
1991 1 41.287 9.103 3 6.02545 -134802 -160622 30032.5 -929.561 42901.9 33279.6 -7.42133 
1992 1 40.556 7.888 3 6.02406 -161614 -158249 -74407.5 -10539.5 -2811.32 24344.3 -7.41582 
1993 1 41.244 6.648 3 6.02225 -120302 -127761 9725.13 18915.4 45828.8 33632.7 -7.42017 
1994 1 40.513 5.432 3 6.0238 -151058 -126571 -63839.7 10233 -7715.64 27708.2 -7.41644 
1995 1 41.201 4.192 3 6.0261 -125284 -157668 -9974.62 1722.8 43216.7 32675.1 -7.41935 
1996 1 40.47 2.977 3 6.01707 -154137 -124363 -52544.9 -22371.9 -16535.5 29690.1 -7.41713 
1997 1 41.158 1.736 3 6.02618 -124637 -139213 -27805.1 -30195 35523.2 30744.7 -7.41791 
1998 1 40.428 0.521 3 6.02384 -126279 -169965 -39587.4 -20885.5 -27562.8 30589.6 -7.41798 
2090 1 42.705 9.078 3 6.0199 -117870 -153677 -82692.3 4483.37 2331.83 25583.1 -7.4156 
2091 1 43.392 7.838 3 6.02677 -151991 -185819 8963.6 238.778 44585.1 39362.5 -7.42049 
2092 1 42.662 6.623 3 6.0247 -127686 -185516 -74071 -13122.5 -2042.56 29364.3 -7.41624 
2093 1 43.349 5.383 3 6.02234 -137167 -152473 -9958.3 20034 44054.7 37766 -7.41943 
2094 1 42.619 4.167 3 6.02265 -119382 -150639 -64681.5 7456.95 -10016.2 31895.7 -7.41691 
2095 1 43.306 2.927 3 6.0276 -134334 -149945 -28010.7 20158.5 38439.4 35357.6 -7.41839 
2096 1 42.576 1.711 3 6.02402 -123547 -152039 -53388.7 6382.17 -20897.8 33465.7 -7.41715 
2097 1 43.263 0.471 3 6.02516 -132804 -163208 -43835.5 12648 28821.8 32907.9 -7.41753 
2189 1 45.54 9.029 3 6.02265 -144396 -149774 5946.51 21349.9 40984.6 42393 -7.42039 
2190 1 44.81 7.813 3 6.02127 -121534 -148053 -83090.6 4827.57 3325.81 27305.6 -7.41534 
2191 1 45.497 6.573 3 6.02615 -150474 -182174 -11276.6 2317.72 42363.1 39481.1 -7.41933 
2192 1 44.767 5.358 3 6.02615 -132002 -181339 -75842.4 -13470.1 -3779.51 29389 -7.41569 
2193 1 45.454 4.118 3 6.02127 -136107 -149037 -28509.9 21694.1 39292.4 35825.3 -7.41826 