ITEM: TIMESTEP
73
ITEM: NUMBER OF ATOMS
1016
ITEM: BOX BOUNDS pp pp pp
0.0000000000000000e+00 2.7677714300000002e+01
0.0000000000000000e+00 4.7939207500000002e+01
0.0000000000000000e+00 1.8399999999999999e+01
ITEM: ATOMS id type x y z c_csym c_2[1] c_2[2] c_2[3] c_2[4] c_2[5] c_2[6] c_3 
38 1 1.20624 11.0094 2.98426 6.01765 -173118 -110333 -67319.3 -42706.3 2965.64 -9693.2 -7.41389 
39 1 0.445586 9.81317 2.97376 6.0102 -138282 -151524 52733 -39980.4 48142 -4691.33 -7.42189 
40 1 1.09978 8.55499 2.96005 6.01193 -172250 -113564 -35479.9 -38589.7 11305 -10414.2 -7.41514 
41 1 0.337752 7.3596 2.94634 6.01389 -135042 -154517 23139 -30240.7 43490.3 -5317.72 -7.41877 
42 1 0.990745 6.10089 2.93264 6.01226 -166344 -120973 -13826.6 -25231.6 15833.2 -9488.59 -7.41561 
43 1 0.227196 4.90635 2.91958 6.01963 -135099 -153448 6192.09 -16171.5 30873.3 -4067.38 -7.41656 
44 1 0.879051 3.64711 2.9091 6.01779 -157858 -129900 -3788.16 -11164.7 14299.9 -7690.16 -7.41546 
45 1 0.114277 2.4532 2.9002 6.02603 -138311 -149411 -601.399 -4521.6 15316 -2016.69 -7.41537 
46 1 0.765388 1.1936 2.89551 6.02704 -148275 -139184 -1662.88 -2537.85 5998.64 -5425.02 -7.41513 
47 1 -1.36975e-06 -3.23081e-06 2.89312 6.0315 -143767 -143665 -1790.68 -50.2067 0.113118 -0.419149 -7.41504 
78 1 2.62286 10.9453 2.98588 6.00121 -174113 -115950 56369 -41179 43620.6 10651 -7.42262 
79 1 3.27647 9.6864 2.97583 6.01189 -199306 -86484.1 -32314.5 -43946.7 2637.2 -26870.6 -7.41583 
80 1 2.51631 8.48991 2.96278 6.00392 -164089 -126128 25497.5 -32347.3 44767.4 1427.15 -7.41964 
81 1 3.16908 7.2308 2.95174 6.01079 -190257 -96872.5 -9981.81 -32761.7 11303.3 -27377.2 -7.41649 
82 1 2.40719 6.0353 2.93623 6.00984 -154772 -134426 5843.82 -16120.6 34974.3 -4811.52 -7.41724 
83 1 3.05903 4.77587 2.92723 6.01345 -176097 -111829 702.12 -16927.4 14423.7 -24862.9 -7.41638 
84 1 2.29544 3.58129 2.91336 6.01678 -148343 -139897 -2022.19 -685.588 20239.4 -8552.94 -7.41579 
85 1 2.94661 2.32164 2.90915 6.02109 -159839 -128317 1759.8 -4570.17 10711.1 -20841.6 -7.41585 
86 1 2.18176 1.1277 2.90018 6.02237 -144575 -143117 -2461.94 8059.55 4351.52 -10787.4 -7.41524 
117 1 5.4515 10.8195 2.98847 6.0027 -216054 -70785.7 -13113.9 -45556.8 -10559.3 -35367.4 -7.4176 
118 1 4.69291 9.62206 2.97973 5.99749 -193056 -96541.3 13449.2 -35122 39509.8 13314.7 -7.41942 
119 1 5.3456 8.36261 2.9729 6.0042 -209144 -78162.9 7659.3 -37131.9 2871.74 -40716.3 -7.41845 
120 1 4.58545 7.16604 2.95843 6.0014 -177689 -111333 -6016.97 -15885 34290.3 341.599 -7.41731 
121 1 5.23745 5.90647 2.95201 6.00921 -193843 -94354.8 16265.9 -19301.1 12357.2 -39851.4 -7.41835 
122 1 4.47535 4.71096 2.93609 6.00913 -163202 -124844 -12238.8 5076.89 21292.2 -9185.97 -7.41597 
123 1 5.12675 3.45129 2.93287 6.0157 -174468 -114503 13319.3 -2105.08 14729.4 -35184.4 -7.41753 
124 1 4.36292 2.25669 2.91946 6.01492 -151900 -135856 -8489.53 19808.7 5705.06 -15853.6 -7.41553 
125 1 5.01411 0.997085 2.92153 6.016 -153236 -135634 3380.51 7139.57 9455.52 -28435.8 -7.41648 
155 1 7.62578 11.9537 2.9927 5.99776 -213947 -74586.1 15004.2 -44116.8 -26382.4 -31592.5 -7.41982 
156 1 6.86788 10.7558 2.99091 5.99946 -211667 -76350.3 -11381.6 -39180.3 27961.9 24592.5 -7.41799 
157 1 7.52079 9.49623 2.98959 5.99933 -214022 -73858.4 37063.6 -38797.7 -10230.5 -43096.3 -7.42115 
158 1 6.76194 8.29881 2.97967 6.00021 -195772 -91401.1 -30435.2 -18051.2 28556.6 8880.4 -7.41639 
159 1 7.4144 7.03927 2.9769 6.00369 -203264 -84907 44932 -19781.7 6503.05 -47204.6 -7.42129 
160 1 6.65374 5.84281 2.96239 6.00531 -177411 -109175 -34577.3 9109.81 18808.2 -4744.89 -7.41545 
161 1 7.30563 4.58325 2.96073 6.01059 -186020 -103468 36986 2840.31 16944.6 -44616.9 -7.42025 
162 1 6.54301 3.38782 2.94593 6.01058 -161563 -125281 -24900.1 31655.3 4038.68 -15065.8 -7.41538 
163 1 7.19457 2.12833 2.94774 6.00946 -164992 -124959 18370.6 19163.5 18404.1 -38065.3 -7.41855 
164 1 6.4304 0.9337 2.93612 6.01154 -148531 -138995 -7796.32 42775.8 -10999 -22916.8 -7.41611 
194 1 9.04219 11.89 2.99245 6.00556 -211473 -74291 -38947.5 -42972.1 13356.9 28085.9 -7.41604 
196 1 8.93718 9.43312 2.99384 6.00648 -200648 -83814.8 -61378.2 -23775.3 18649.7 15757.3 -7.41472 
198 1 8.83073 6.97683 2.98543 6.00915 -183646 -99873.6 -67089.7 7648.22 13410.6 2309.17 -7.41408 
200 1 8.7219 4.52143 2.97282 6.01277 -167768 -116872 -53197.5 38741.7 460.883 -9406.07 -7.41445 
202 1 8.61082 2.06689 2.96234 6.01199 -154608 -131715 -26440.2 59144.5 -14758.3 -18810.3 -7.41576 
511 2 0.209849 11.0718 6.41425 6.00817 -129330 -159627 71878.1 40404.1 44997.3 8149.97 -7.42365 
512 2 0.316396 8.61849 6.43927 6.01055 -126538 -163003 36988.7 37002.3 47111.1 7634.28 -7.42025 
513 2 0.425533 6.16554 6.46713 6.01575 -127608 -161292 13318.8 24863.5 37834.1 4835.75 -7.41753 
514 2 0.537294 3.71266 6.49085 6.02109 -132134 -155886 1759.05 11345.2 23404.7 1143.63 -7.41585 
515 2 0.650989 1.25965 6.50449 6.02695 -139286 -148176 -1662.81 2709.98 7697.17 -2482.52 -7.41513 
516 2 -5.31314e-06 7.13935e-07 6.50688 6.03151 -143747 -143676 -1790.64 20.9359 0.431317 -0.181672 -7.41504 
546 2 1.62675 11.1361 6.41457 6.00908 -127492 -156088 -67089.9 40282.1 4704.85 -12767.8 -7.41408 
547 2 2.38899 9.9407 6.42311 6.00372 -97298.6 -190944 44933.5 41165.9 44131.4 17971.6 -7.42129 
548 2 1.73316 8.68372 6.43761 6.00528 -134251 -152282 -34576.5 34187.5 13514 -13917.4 -7.41545 
549 2 2.49643 7.48901 6.44799 6.00915 -102346 -185717 16266.9 33164.4 40691.8 9224.9 -7.41836 
550 2 1.84214 6.23125 6.46391 6.00918 -138926 -149162 -12238.6 19189.6 18601.7 -13846.6 -7.41597 
551 2 2.60652 5.03714 6.47277 6.01344 -113228 -174707 701.602 19283.8 28744 -60.7718 -7.41638 
552 2 1.95378 3.77856 6.48664 6.01682 -141397 -146848 -2021.97 3318.72 17526.6 -13251.3 -7.41579 
553 2 2.71897 2.58484 6.4909 6.0178 -127220 -160531 -3787.76 6564.73 13809.1 -8539.56 -7.41546 
554 2 2.06739 1.32557 6.4998 6.02601 -142720 -145027 -600.491 -7038.21 9404.6 -12256.8 -7.41537 
555 2 2.83279 0.131932 6.49753 6.02203 -143070 -144716 -1705.58 728.463 -485.101 -15518.4 -7.41539 
585 2 4.46358 11.2613 6.41042 5.99939 -75363 -212665 37067.1 41185.3 32207.7 30407.7 -7.42115 
586 2 3.80601 10.0054 6.42033 6.00021 -101961 -185226 -30437 36201.7 6587.86 -29169.9 -7.4164 
587 2 4.56943 8.81073 6.4271 6.00427 -78747.4 -208634 7661.81 37915.1 36698.8 17872.1 -7.41844 
588 2 3.91325 7.55413 6.44157 6.00148 -114115 -174859 -6018.23 20716.2 16850 -29865.1 -7.41731 
589 2 4.67752 6.3599 6.44826 6.01083 -91816.2 -195335 -9983.54 23934.2 29362 3900.33 -7.41649 
590 2 4.02314 5.10234 6.46377 6.0099 -125563 -163788 5843.77 711.239 21654.3 -27881.4 -7.41724 
591 2 4.78816 3.90845 6.46736 6.01224 -110478 -176916 -13826.8 7126.25 16133.5 -8967.76 -7.41562 
592 2 4.13543 2.64993 6.48042 6.01965 -134818 -153833 6192.81 -16051.8 18959.2 -24703.9 -7.41656 
593 2 4.90076 1.45616 6.47857 6.01334 -131476 -156552 -7629.16 -5014.01 1932.44 -19787.7 -7.4157 
594 2 4.24915 0.196925 6.48662 6.01707 -142949 -144935 -450.499 -23786.1 8922.12 -20783.2 -7.41583 
624 2 5.88082 11.3256 6.40909 5.99948 -76413.6 -211566 -11385 39103.2 -7316.24 -36512.2 -7.41799 
625 2 6.64423 10.1309 6.41153 6.00275 -67790.9 -219143 -13108.6 40082.2 25350.2 26828.7 -7.4176 
626 2 5.9865 8.87519 6.42027 5.9975 -90330.4 -199334 13444.5 24184.3 8225.03 -40872.9 -7.41942 
627 2 6.75044 7.6807 6.42417 6.01195 -76612.3 -209196 -32314.8 26837.4 24590 11152.1 -7.41583 
628 2 6.09433 6.42413 6.43722 6.00399 -107542 -182709 25494.8 111.166 21148.4 -39481.8 -7.41964 
629 2 6.85896 5.22992 6.43995 6.01195 -94866.5 -191056 -35480.8 6133.64 14671.3 -4582.78 -7.41514 
630 2 6.20473 3.9723 6.45367 6.01385 -123368 -166372 23139.5 -23707.3 26350.5 -35004.1 -7.41877 
631 2 6.96981 2.77824 6.4526 6.0085 -117680 -169493 -24285.3 -12937.1 1158.52 -18187.6 -7.41555 
632 2 6.31715 1.51967 6.46372 6.01305 -136501 -151901 10185.2 -39645 22362.9 -29366.4 -7.41738 
633 2 7.08215 0.325497 6.45729 6.00608 -141732 -147197 -4250.18 -22944.2 -11301 -29226.8 -7.41681 
663 2 8.71978 11.4504 6.40663 6.00324 -77622.5 -208553 -38493.4 40146.1 10145 29867 -7.41619 
664 2 8.06146 10.1949 6.40683 5.99629 -77557.7 -211479 41263.5 29920.4 -8266.57 -41720.7 -7.42172 
665 2 8.8248 9.00002 6.40735 6.01226 -77657.5 -206199 -61722.4 29086.7 15212.4 17346.4 -7.41453 
666 2 8.16744 7.74407 6.41412 6.00124 -94762.7 -195185 56366.9 4428.57 12587.3 -43102.1 -7.42262 
667 2 8.93133 6.54933 6.41574 6.01768 -89170.7 -194228 -67318.8 5874.46 9877.97 2277.69 -7.41389 
668 2 8.27568 5.29246 6.42624 6.01024 -113534 -176328 52729.1 -25883.2 28135.2 -39347.1 -7.42189 
669 2 9.04019 4.09791 6.42629 6.00873 -108330 -176596 -52954.1 -20183.2 -1999.86 -11988.7 -7.41458 
670 2 8.38629 2.84005 6.43701 6.00774 -129443 -159156 33301 -51014.1 33049.4 -33386.3 -7.41999 
671 2 9.15111 1.64554 6.43324 6.00127 -130532 -157008 -24293.8 -39545.1 -15211.1 -23717.4 -7.41635 
672 2 8.49847 0.386915 6.44147 6.00849 -142569 -145009 4701.74 -63515.8 27417.9 -26568.5 -7.41774 
195 1 9.69564 10.6308 2.99698 5.99734 -198992 -89580.5 66402.7 -38975.6 -25631.5 -31321.4 -7.42361 
197 1 9.59046 8.17394 2.99538 6.00241 -196628 -91020.8 80177.8 -20083.5 -3874.81 -40618.4 -7.4245 
199 1 9.48351 5.71761 2.98575 6.00822 -187009 -101862 71875.2 7264.32 15441.9 -43044.3 -7.42365 
201 1 9.37416 3.26221 2.97435 6.00534 -171782 -118520 45892.3 31840.3 25665.2 -39643.2 -7.42148 
203 1 9.26293 0.807826 2.96694 5.99983 -152433 -137343 11119 44136.3 24784.7 -32852.3 -7.41881 
233 1 11.8713 11.765 2.99443 6.00353 -167121 -121927 80323.6 -39175.9 -38466.6 -10726.7 -7.4246 
234 1 11.1122 10.5678 2.99789 6.01624 -187220 -94493.2 -84869.7 -31543.9 7905.34 14627.7 -7.41324 
235 1 11.7666 9.30936 3.00351 6.00668 -171678 -115398 105453 -22495.9 -16578.4 -19997 -7.42666 
236 1 11.0069 8.11217 2.99966 6.01761 -175353 -104406 -98816.6 -1512.34 7019.11 6553.83 -7.41244 
237 1 11.661 6.85365 3.00195 6.01069 -172020 -115354 105942 7163.67 9263.86 -26430.1 -7.42665 
238 1 10.8999 5.65705 2.99339 6.01858 -163933 -117345 -87575.7 35232.7 -3056.06 -1996.2 -7.41292 
239 1 11.5532 4.39836 2.99443 6.00353 -167183 -121977 80320.9 39267.5 28524.6 -27949.4 -7.4246 
240 1 10.7905 3.20253 2.98488 6.01629 -155132 -129172 -55364 65622.1 -17759.6 -9745.04 -7.41465 
241 1 11.4432 1.94376 2.98698 5.99782 -156944 -132826 38152.8 61683.2 35525.5 -25614.1 -7.42137 
242 1 10.6792 0.748498 2.9795 6.00529 -147604 -139047 -12874.3 80197.3 -31585.2 -16508.8 -7.41726 
272 1 13.2881 11.7015 2.99339 6.01859 -159449 -121656 -87578.1 -37946.6 -200.868 3643.52 -7.41292 
273 1 13.9438 10.4441 3.00195 6.0107 -135588 -151665 105941 -28067.3 -27520.9 5194.07 -7.42665 
274 1 13.1833 9.24739 3.00342 6.02526 -151882 -125840 -112705 -15970.3 2769.56 2499.67 -7.41165 
275 1 13.8389 7.98986 3.00701 6.01776 -143228 -143306 120406 58.064 -0.272278 1.26215 -7.42787 
276 1 13.0776 6.79339 3.00342 6.02523 -146130 -131660 -112704 19320.7 -3550.7 1148.54 -7.41165 
277 1 13.7323 5.53551 3.00351 6.00667 -148937 -138275 105451 35726.9 25608.8 -4358.82 -7.42666 
278 1 12.9697 4.33954 2.99789 6.0162 -144901 -136873 -84867.8 55821.3 -16621.8 -468.66 -7.41324 
279 1 13.6233 3.08128 2.99699 5.99732 -150627 -137977 66403.2 66853.5 39940.6 -6538.07 -7.42361 
280 1 12.8596 1.88578 2.99245 6.00555 -145724 -140146 -38946.6 80802.1 -31001.8 -2476.95 -7.41604 
281 1 13.5126 0.6273 2.9927 5.99778 -147543 -140910 15005.1 82459.8 40551.6 -7053.57 -7.41982 
311 1 16.1225 11.577 2.99538 6.00239 -99910.6 -187699 80175.8 -35548.8 -33240.1 23664.9 -7.4245 
312 1 15.3607 10.3812 2.99966 6.01763 -120795 -158903 -98815.5 -30011 2166.48 -9356.13 -7.41244 
313 1 16.0177 9.12473 3.00351 6.00668 -109865 -177199 105451 -13082.6 -9031.12 24357.1 -7.42666 
314 1 15.2557 7.92882 3.00342 6.02523 -118477 -159243 -112704 -3360.58 780.312 -3649.45 -7.41165 
315 1 15.9118 6.67189 3.00194 6.01067 -123235 -164004 105943 21098 18255.8 21236.9 -7.42665 
316 1 15.1489 5.47622 2.99966 6.01757 -123306 -156398 -98816.9 31474.4 -9185.91 2800.75 -7.41244 
317 1 15.8036 4.21863 2.99538 6.00244 -134841 -152816 80179.6 55925.6 37112.9 16952.4 -7.4245 
318 1 15.0398 3.02328 2.99384 6.00647 -133435 -150908 -61379 62333.9 -22972.1 8271.3 -7.41473 
319 1 15.6933 1.76509 2.98958 5.99935 -142565 -145372 37068.1 80125.8 42437 12686 -7.42115 
320 1 14.929 0.569895 2.99091 5.99945 -144026 -143975 -11382.3 78060.1 -35279.2 11918.2 -7.41799 
350 1 17.5396 11.5132 2.99384 6.00652 -92514.2 -191918 -61377.6 -38851.1 4322.5 -24029.9 -7.41472 
351 1 18.1976 10.2575 2.99699 5.99736 -83227.9 -205360 66401.7 -27834.6 -14309.9 37857.9 -7.42361 
352 1 17.4347 9.06229 2.99789 6.01623 -90313 -191317 -84867.9 -24469.7 8716.23 -14160.8 -7.41324 
353 1 18.092 7.8062 2.99443 6.00354 -99255.5 -189815 80323.2 97.7984 9941.32 38676.3 -7.4246 
354 1 17.3286 6.61106 2.99339 6.01858 -98301.7 -182887 -87577.2 2533.63 3257.31 -1649.83 -7.41292 
355 1 17.9844 5.35416 2.98575 6.00824 -116953 -172074 71879.8 33386.2 29555.9 34893.6 -7.42365 
356 1 17.2202 4.15924 2.98543 6.00909 -114058 -169468 -67089.8 32196.4 -8705.45 10458.9 -7.41408 
357 1 17.8743 2.90143 2.97689 6.00373 -131668 -156398 44937.1 61242.2 37628.3 29233.3 -7.42129 
358 1 17.1098 1.70662 2.97967 6.00019 -133065 -154099 -30435.4 54031.5 -21969 20289.6 -7.4164 
359 1 17.7627 0.448132 2.9729 6.00427 -143139 -144105 7663 75326.5 33826.2 22843.5 -7.41844 
702 2 10.137 11.5143 6.40501 5.99869 -83813.7 -204108 63479.1 36176.1 -27862.7 -31955.2 -7.42327 
703 2 10.8995 10.319 6.40175 6.01279 -99503 -182193 -84837.1 32288.8 5278.26 16588.6 -7.4133 
704 2 10.2419 9.06296 6.40053 6.00131 -95616.4 -192610 87314.6 14084.5 -4588.95 -35177.3 -7.42523 
705 2 11.0047 7.86752 6.40063 6.02199 -100708 -179185 -98804.4 8798.23 4419.82 6774.7 -7.41239 
706 2 10.3482 6.61094 6.405 6.0091 -112196 -176340 89088.7 -19014.7 20289 -33016.6 -7.42523 
707 2 11.1117 5.4157 6.40626 6.01503 -110634 -170419 -87562.5 -22696.7 -5118.23 -4130.4 -7.41298 
708 2 10.4568 4.15829 6.41335 6.00456 -127407 -160850 67675.3 -51937.6 36295.3 -28238.2 -7.42331 
709 2 11.221 2.96327 6.413 6.00464 -126440 -158665 -54699.8 -51191.8 -18491.8 -13670.5 -7.41498 
710 2 10.5675 1.70511 6.41978 6.00133 -138905 -148705 30729.1 -74841.9 39368.4 -22613.3 -7.42035 
711 2 11.332 0.510128 6.41596 5.99805 -142861 -145687 -9784.06 -66200.6 -30547 -20810.6 -7.41794 
741 2 12.9731 11.6388 6.40626 6.01499 -135823 -145379 -87563.1 37425.7 -1017.23 6495.88 -7.41298 
742 2 12.3165 10.382 6.3985 6.00654 -113906 -173227 101110 26537.1 -24436.3 -18642.6 -7.42626 
743 2 13.0779 9.18584 6.39654 6.02318 -129817 -147885 -112711 17096.7 2018.12 3724.48 -7.41166 
744 2 12.4216 7.92891 6.39447 6.01279 -124772 -161954 115339 -2851.02 3299.2 -15951.8 -7.42746 
745 2 13.1836 6.73286 6.39654 6.02319 -128722 -148969 -112711 -16411.5 -4235.16 -114.824 -7.41166 
746 2 12.5284 5.47542 6.3985 6.00665 -135428 -151665 101107 -39050.7 28365.6 -11840.4 -7.42626 
747 2 13.2915 4.27973 6.40175 6.0128 -133726 -147931 -84836.6 -51845.8 -17006 -3723.72 -7.4133 
748 2 12.6375 3.02172 6.40501 5.99862 -142766 -145089 63476.6 -70308.1 41606.2 -8153.14 -7.42327 
749 2 13.4015 1.82637 6.40663 6.00326 -141224 -144941 -38494.5 -76792.7 -30938.2 -6148.2 -7.41619 
750 2 12.7484 0.56797 6.40886 5.99965 -145773 -142048 13533.9 -86127.6 41222.9 -5042.38 -7.41957 
780 2 14.39 11.7024 6.405 6.00912 -143975 -144646 89088.3 37195.3 -38737.6 -1060.35 -7.42523 
781 2 15.15 10.5055 6.40063 6.02199 -167093 -112749 -98803.5 29701.1 3657.44 -7216.08 -7.4124 
782 2 14.4947 9.24776 6.39447 6.01287 -150345 -136450 115338 17489.2 -15465.4 5120.13 -7.42746 
783 2 15.2551 8.05092 6.39654 6.02318 -158213 -119417 -112710 -642.711 2216.42 -3610.25 -7.41165 
784 2 14.6003 6.79294 6.39447 6.01285 -155245 -131511 115338 -14822.7 12166.2 10833.1 -7.42746 
785 2 15.3619 5.59655 6.40063 6.02195 -152152 -127765 -98805.2 -38393.5 -8077.86 439.553 -7.4124 
786 2 14.708 4.33827 6.40053 6.00132 -156235 -131991 87313.3 -49154.2 32759.7 13612.5 -7.42523 
787 2 15.4711 3.14248 6.40735 6.01227 -149019 -134945 -61723 -70249.1 -22629.4 4499.8 -7.41453 
788 2 14.8179 1.88396 6.40683 5.99628 -152211 -136932 41264.9 -73095.6 40264.6 13699 -7.42173 
789 2 15.582 0.68862 6.41153 6.00271 -146629 -140194 -13110.6 -85658.3 -35909.8 8537.11 -7.4176 
819 2 17.2207 11.8271 6.40735 6.01228 -199200 -84649.4 -61721.7 41203.8 7416.24 -21848 -7.41453 
820 2 16.5667 10.5684 6.40053 6.00133 -180534 -107608 87311.9 34921 -28170 21563.9 -7.42523 
821 2 17.3256 9.37092 6.40175 6.01279 -189451 -92199.6 -84835.6 19798.7 11727.2 -12865.9 -7.4133 
822 2 16.6717 8.11218 6.3985 6.00656 -181481 -105598 101108 12349.5 -3929.05 30483.8 -7.42626 
823 2 17.4317 6.91515 6.40626 6.01492 -175317 -105777 -87563.2 -14453.5 6135.29 -2368.74 -7.41298 
824 2 16.7784 5.65631 6.405 6.00908 -176860 -111717 89091.2 -18491.5 18449 34075.8 -7.42523 
825 2 17.5402 4.46008 6.41574 6.01758 -162965 -120314 -67319.6 -48371.4 -6912.05 7414.44 -7.4139 
826 2 16.8874 3.20116 6.41412 6.00122 -166295 -123715 56370.6 -45779.3 31033.4 32449.6 -7.42262 
827 2 17.6508 2.00569 6.42417 6.01193 -152712 -133000 -32313.6 -70740.7 -21952 15718.5 -7.41583 
828 2 16.9983 0.746847 6.42027 5.99747 -151143 -138495 13448.9 -59287.2 31285.1 27557.4 -7.41942 
389 1 20.3781 11.3887 2.9927 5.99772 -71193.5 -217260 15006.7 -38330.2 -14168.8 38644.3 -7.41982 
390 1 19.6148 10.1938 2.99245 6.00556 -71480.1 -214298 -38947.3 -37965.5 17644.5 -25610.6 -7.41604 
391 1 20.2728 8.93825 2.98698 5.99782 -85435.6 -204395 38154.4 -20396.9 4418.84 43572.5 -7.42137 
392 1 19.509 7.74356 2.98488 6.01631 -78774.2 -205587 -55364.7 -21658.4 17318.5 -10509.6 -7.41465 
393 1 20.1655 6.48716 2.97435 6.00534 -104237 -185954 45895.3 7282.73 21497.7 42048.1 -7.42148 
394 1 19.4011 5.29268 2.97283 6.01275 -95935.7 -188647 -53198.4 2551.28 7914.97 5101.75 -7.41446 
395 1 20.0557 4.03525 2.96073 6.01062 -121827 -167703 36988.8 34515.7 30168.6 36982.5 -7.42025 
396 1 19.2908 2.84091 2.96239 6.00531 -118187 -168127 -34577.5 24725.4 -5296.39 18662.3 -7.41545 
397 1 19.9438 1.58253 2.95201 6.00927 -136083 -151912 16266.2 52784.5 28335.1 30628.4 -7.41835 
398 1 19.179 0.388092 2.95843 6.00151 -141645 -147190 -6017.39 36525 -17440.5 29525.7 -7.41731 
428 1 21.7954 11.3244 2.99114 5.99966 -68434.4 -219409 13535.8 -41487.5 24975.8 -33180.1 -7.41957 
429 1 22.4535 10.0689 2.98404 5.99805 -87478.6 -200959 -9784.62 -34432.9 2747.09 36859.4 -7.41794 
430 1 21.6899 8.87425 2.9795 6.00529 -71718.7 -215002 -12873.3 -36336.1 30088.6 -19101.4 -7.41726 
431 1 22.3467 7.61803 2.96694 5.99981 -102816 -186967 11119.9 -15497.9 16057.4 37889.8 -7.41881 
432 1 21.5823 6.42375 2.96234 6.01198 -86090.5 -200127 -26439.2 -19701.4 23668.7 -3376.9 -7.41576 
433 1 22.2372 5.16652 2.94774 6.00945 -118413 -171482 18369.9 7861.51 23763 34970.6 -7.41855 
434 1 21.4723 3.97251 2.94593 6.01055 -106938 -179864 -24900 -206.418 11029 11031.4 -7.41538 
435 1 22.1254 2.71425 2.93287 6.01571 -131458 -157473 13317.1 27138.9 23106.5 30348.2 -7.41753 
436 1 21.3602 1.52029 2.93609 6.00921 -130086 -157923 -12239.3 13970.2 -2690.22 23033.1 -7.41597 
437 1 22.0122 0.261259 2.92723 6.01349 -142602 -145251 700.742 36312 14319.3 24923 -7.41638 
467 1 24.6335 11.1993 2.987 6.00463 -106032 -179029 -54700.6 -39732.4 2591.91 22848.9 -7.41498 
468 1 23.8706 10.0043 2.98022 6.00134 -81431.7 -206316 30731.2 -41472.8 39267.7 -22790.3 -7.42035 
469 1 24.5273 8.74787 2.96676 6.00121 -116095 -171623 -24292.6 -31258.1 12935 25030.2 -7.41635 
470 1 23.7636 7.55336 2.95853 6.00842 -89329.1 -198187 4702.69 -32651.7 36718.1 -10461.6 -7.41774 
471 1 24.4185 6.29608 2.94271 6.00611 -125930 -163018 -4249.79 -13842.9 19661 24399.6 -7.41681 
472 1 23.6539 5.10205 2.93612 6.01152 -104348 -183167 -7795.49 -17234.9 25347.3 1933.06 -7.41611 
473 1 24.3072 3.84381 2.92153 6.01605 -133799 -154969 3379.12 4137.29 19898.3 22406.2 -7.41648 
474 1 23.5419 2.65006 2.91946 6.01497 -122722 -164992 -8490.38 -2968.54 10877.7 12867.3 -7.41553 
475 1 24.1938 1.39103 2.90915 6.02104 -140043 -147887 1758.82 16007.7 12692.4 19696.8 -7.41585 
476 1 23.4285 0.197258 2.91336 6.01685 -142567 -145532 -2022.38 4005.05 -2712.72 21804.1 -7.41579 
499 1 26.0505 11.135 2.98665 6.00453 -107422 -180642 67678.7 -40299.9 42601.5 -17313.4 -7.42331 
500 1 26.7065 9.87799 2.97371 6.00868 -141873 -142957 -52955.2 -39854.4 9382.06 7725.87 -7.41458 
501 1 25.9441 8.68277 2.96299 6.00769 -107699 -180950 33302.7 -38155.1 45438.3 -11929 -7.41999 
502 1 26.5988 7.42515 2.9474 6.00858 -145213 -141932 -24285.6 -29020.4 16331.5 8089.9 -7.41555 
503 1 25.8352 6.23065 2.93628 6.0131 -113775 -174640 10184.7 -26399.3 36613.3 -4684.25 -7.41738 
504 1 26.4884 4.97226 2.92143 6.01336 -145776 -142089 -7629.49 -13365.8 18103.6 8220.34 -7.4157 
505 1 25.7237 3.77834 2.91338 6.01714 -123797 -164070 -451.681 -12644.9 22460.2 2664.36 -7.41583 
506 1 26.3756 2.51924 2.90247 6.02207 -144893 -142992 -1706.06 -355.639 13197 8179.05 -7.41539 
507 1 25.6102 1.32561 2.90018 6.02232 -136356 -151157 -2462.25 -3442.6 7164.85 9162.43 -7.41524 
508 1 26.2613 0.0660516 2.89551 6.02694 -143687 -143759 -1662.66 5095.7 1699.4 7908.17 -7.41513 
858 2 18.6372 11.8907 6.40683 5.99628 -203912 -85139.1 41264.8 43080.3 -31997.5 28019.6 -7.42172 
859 2 19.3953 10.6929 6.40663 6.00327 -210478 -75689 -38494.8 36784 20792.6 -23719.7 -7.41619 
860 2 18.7421 9.43354 6.40501 5.99871 -205474 -82602.9 63477.4 34015.7 -13744.3 40107.4 -7.42327 
861 2 19.5009 8.23605 6.413 6.0046 -194972 -90026.2 -54700.2 11873.8 21084.6 -9179.8 -7.41499 
862 2 18.8481 6.9767 6.41335 6.00454 -197457 -90753.4 67678.7 11376.7 6305.51 45550.4 -7.42331 
863 2 19.6087 5.78008 6.42629 6.00864 -177106 -107668 -52954.6 -19197.9 11381.7 4261.68 -7.41459 
864 2 18.9565 4.5207 6.42624 6.01024 -182968 -106833 52733.3 -14323.2 20006.9 44039 -7.42189 
865 2 19.719 3.32506 6.43995 6.01193 -161668 -124219 -35480.2 -44511.7 -3366.97 14998 -7.41514 
866 2 19.0671 2.06577 6.43722 6.004 -163632 -126488 25497.3 -32613.9 23619.2 38056.5 -7.41964 
867 2 19.8311 0.870898 6.44826 6.01087 -148641 -138369 -9982.24 -56724.5 -18058.4 23478.9 -7.41649 
898 2 20.8117 10.7564 6.40886 5.99971 -217433 -70380.9 13536.5 44567.8 -16245.6 38220.3 -7.41957 
899 2 21.5699 9.55872 6.41596 5.99812 -202243 -86277.6 -9785.12 31960.6 33295.3 -16049.4 -7.41794 
900 2 20.9173 8.29918 6.41978 6.0014 -210918 -76835.6 30730.3 33162.2 -102.791 45402.8 -7.42035 
901 2 21.6771 7.10232 6.43324 6.00126 -184542 -103102 -24292.6 8537.71 28145.8 -1312.93 -7.41636 
902 2 21.025 5.84272 6.43701 6.00772 -195785 -92914.5 33302.1 12482.3 12387.7 45315.7 -7.41999 
903 2 21.7868 4.64693 6.4526 6.00858 -167715 -119281 -24285.6 -15746.8 15172.3 10097.5 -7.41555 
904 2 21.1352 3.38731 6.45367 6.01391 -175965 -113543 23138.6 -6801.74 17139.6 40322.5 -7.41877 
905 2 21.8988 2.19245 6.46736 6.01236 -154201 -133103 -13827.4 -32225.1 -300.998 18456 -7.41561 
906 2 21.2474 0.932976 6.46377 6.00995 -153568 -135612 5841.86 -16862.2 13319 32694.4 -7.41724 
937 2 23.6394 10.882 6.41302 5.99789 -192214 -97540.9 38154.6 41275.9 39944.4 -17958.7 -7.42137 
938 2 22.9863 9.62273 6.4205 6.00535 -210528 -76134 -12873.1 43793 -1497.33 35609.1 -7.41726 
939 2 23.7459 8.42585 6.43306 5.99992 -179211 -110521 11119.2 28657.5 40843.6 -5038.16 -7.41881 
940 2 23.0934 7.16644 6.44147 6.00848 -199087 -88298.8 4702.88 30679.9 9300.84 37029.7 -7.41774 
941 2 23.8548 5.97058 6.45729 6.00619 -165615 -123284 -4250.02 9160.24 30961.9 4827.3 -7.41681 
942 2 23.2031 4.71099 6.46372 6.01308 -182233 -106080 10184.7 13023.4 14251.7 34049.7 -7.41738 
943 2 23.9663 3.51612 6.47857 6.01334 -154637 -133357 -7629.78 -8362.74 16171.6 11567 -7.4157 
944 2 23.3151 2.25643 6.48042 6.01969 -163014 -125695 6191.5 -310.68 11913.8 28770.4 -7.41656 
945 2 24.0797 1.06228 6.4909 6.01784 -146571 -141142 -3788.06 -17675.8 490.746 16228.8 -7.41546 
976 2 25.056 10.9461 6.41512 6.01632 -192515 -91824.2 -55365.1 44199.7 -442.182 20253.6 -7.41465 
977 2 25.8158 9.74937 6.42565 6.00536 -159368 -130938 45895.6 38946.1 47163.6 -2406.41 -7.42148 
978 2 25.1623 8.49063 6.43766 6.01206 -188574 -97550 -26439.7 39556.5 8910.91 22185.8 -7.41576 
979 2 25.9236 7.29484 6.45226 6.0095 -151446 -138387 18369.8 26850.2 42167.4 3093.92 -7.41855 
980 2 25.2711 6.03574 6.46388 6.01158 -178347 -109123 -7795.92 25555.2 14347.3 20983.8 -7.41611 
981 2 26.0342 4.84089 6.47847 6.01598 -146036 -142662 3380.04 11240.2 29353.6 6029.46 -7.41648 
982 2 25.3826 3.58142 6.48662 6.01702 -164971 -122818 -451.095 10981.1 13537.9 18118 -7.41583 
983 2 26.1471 2.38731 6.49753 6.02204 -143678 -144054 -1706.17 -1088.22 13682.1 7338.51 -7.41539 
984 2 25.496 1.12763 6.4998 6.02603 -150605 -137192 -601.083 2542.11 5911.35 14272.8 -7.41537 
1013 2 27.2324 9.81411 6.42718 6.01272 -163248 -121440 -53198.5 41571.4 8375.47 4303.38 -7.41446 
1014 2 27.3402 7.36033 6.45407 6.01066 -161791 -124979 -24900.4 31676.9 15067.1 4034.02 -7.41538 
1015 2 27.4506 4.90675 6.48054 6.01489 -156850 -130643 -8489.98 16952.3 16581.3 2985.39 -7.41553 
1016 2 27.5635 2.45332 6.49982 6.0224 -150422 -137219 -2462.56 4737.58 11517.4 1624.6 -7.41524 
28 1 1.74313 23.281 2.98847 6.00269 -146580 -140317 -13110.8 85727.2 35909.9 8538.4 -7.4176 
29 1 0.979059 22.0856 2.99317 5.99619 -152090 -136990 41265.4 73133.2 -40264.6 13700.9 -7.42172 
30 1 1.63221 20.8271 2.99265 6.01223 -148880 -135084 -61723 70188.1 22629.1 4501.81 -7.41453 
31 1 0.869152 19.6313 2.99947 6.00127 -156205 -132191 87314.2 49137.2 -32759.6 13614.1 -7.42523 
32 1 1.52306 18.3731 2.99937 6.02196 -152008 -127942 -98804.8 38376.2 8078.16 440.483 -7.4124 
33 1 0.761436 17.1767 3.00553 6.01277 -155080 -131672 115339 14788.9 -12165.5 10831.6 -7.42746 
34 1 1.41623 15.9187 3.00346 6.02316 -158205 -119528 -112711 614.295 -2215.97 -3609.58 -7.41166 
35 1 0.65586 14.7219 3.00553 6.01275 -150179 -136481 115339 -17517.8 15464.1 5118.04 -7.42746 
36 1 1.31115 13.4641 2.99937 6.02195 -167203 -112720 -98805.1 -29696.9 -3656.95 -7214.77 -7.41239 
37 1 0.551166 12.2673 2.995 6.00905 -143952 -144585 89091.2 -37217.8 38736.1 -1061.68 -7.42523 
68 1 3.15947 23.2227 2.97973 5.99748 -151142 -138560 13445.9 59342.5 -31285 27558.2 -7.41942 
69 1 3.81195 21.9639 2.97583 6.01191 -152854 -133091 -32313.5 70817.8 21953 15720 -7.41583 
70 1 3.04857 20.7684 2.98588 6.00117 -166135 -123819 56366.8 45781.8 -31035.2 32451.4 -7.42262 
71 1 3.70131 19.5095 2.98426 6.01765 -162956 -120499 -67317.7 48320.7 6912.37 7416.12 -7.41389 
72 1 2.93952 18.3133 2.995 6.00908 -176716 -111908 89090.4 18414.5 -18450.2 34077.8 -7.42523 
73 1 3.59288 17.0545 2.99374 6.015 -175241 -105985 -87563 14358.1 -6134.47 -2366.83 -7.41298 
74 1 2.83283 15.8574 3.0015 6.00655 -181520 -105783 101111 -12434.4 3928.7 30483.2 -7.42626 
75 1 3.48675 14.5987 2.99825 6.01275 -189510 -92239.7 -84838.2 -19774.6 -11726.5 -12865.3 -7.4133 
76 1 2.72781 13.4012 2.99947 6.00123 -180663 -107590 87315.4 -34894.3 28170.4 21562.4 -7.42523 
77 1 3.38186 12.1425 2.99265 6.01221 -199426 -84575.9 -61723.7 -41175.9 -7415.59 -21846.9 -7.41453 
107 1 5.99226 23.0987 2.95174 6.01086 -148657 -138429 -9982.7 56750.9 18058.1 23478.8 -7.41649 
108 1 5.22823 21.9038 2.96278 6.00399 -163797 -126618 25494.7 32703 -23617.4 38056 -7.41964 
109 1 5.88014 20.6445 2.96005 6.01192 -161669 -124395 -35479.4 44558.2 3367.11 14999.3 -7.41514 
110 1 5.11761 19.4489 2.97376 6.01018 -182966 -106995 52729.4 14312.4 -20007.6 44039.9 -7.42189 
111 1 5.76987 18.1895 2.97371 6.00872 -177045 -107814 -52954.8 19200.7 -11381.1 4263.48 -7.41458 
112 1 5.00928 16.9929 2.98665 6.00457 -197368 -90874.3 67678.5 -11393.7 -6307.1 45551.4 -7.42331 
113 1 5.66208 15.7336 2.987 6.00464 -195102 -90037.7 -54702.2 -11825 -21084 -9179.05 -7.41499 
114 1 4.90322 14.5361 2.99499 5.9986 -205522 -82506.4 63480.9 -34005 13744.2 40106.9 -7.42327 
115 1 5.55641 13.2767 2.99337 6.00321 -210588 -75577.8 -38495.6 -36804 -20792.1 -23719.3 -7.41619 
116 1 4.79834 12.0789 2.99317 5.99627 -204106 -85040.6 41265.9 -43095.2 31998.2 28019.3 -7.42172 
146 1 7.40854 23.0366 2.93623 6.00994 -153576 -135727 5842.3 16905.2 -13318.9 32694.2 -7.41724 
147 1 8.05996 21.7772 2.93264 6.01236 -154164 -133222 -13827.4 32272.6 301.097 18455.8 -7.41561 
148 1 7.29639 20.5823 2.94634 6.01386 -175916 -113652 23137.6 6844 -17140.1 40323.1 -7.41877 
149 1 7.94793 19.3227 2.9474 6.0086 -167786 -119358 -24286.3 15776.7 -15170.5 10098.9 -7.41555 
150 1 7.18616 18.1269 2.96299 6.00776 -195728 -92847.5 33299.3 -12529.9 -12389.4 45315.4 -7.41999 
151 1 7.83823 16.8673 2.96676 6.00129 -184633 -102933 -24295 -8534.39 -28145 -1312.69 -7.41635 
152 1 7.07843 15.6704 2.98023 6.00135 -211077 -76701.1 30729.9 -33129.6 102.048 45401.9 -7.42035 
153 1 7.73108 14.4109 2.98404 5.99806 -202377 -86180.2 -9785.04 -31976.3 -33295.7 -16049.1 -7.41794 
154 1 6.97279 13.2132 2.99114 5.99965 -217543 -70310.1 13535.9 -44609.5 16246.1 38220.4 -7.41957 
192 1 9.14745 14.3469 2.9795 6.00526 -210628 -75947.1 -12875.4 -43784 1496.53 35607.3 -7.41727 
509 2 6.42956e-06 15.9797 6.39299 6.01774 -143229 -143167 120405 -70.4236 0.150605 -1.00346 -7.42787 
510 2 0.104947 13.5255 6.39805 6.01067 -135575 -151780 105942 28109.4 27520.4 5192.11 -7.42665 
536 2 1.09016 23.3997 6.40909 5.9995 -144042 -144068 -11382.9 -78111.8 35279.5 11919.6 -7.41799 
537 2 1.85449 22.2045 6.41042 5.99937 -142657 -145314 37065 -80111.2 -42438.2 12689 -7.42115 
538 2 1.20094 20.9463 6.40616 6.00654 -133602 -150810 -61379.9 -62336.1 22971.8 8272.47 -7.41473 
539 2 1.96478 19.751 6.40461 6.00252 -135011 -152655 80176.2 -55913 -37115.5 16953.7 -7.4245 
540 2 1.31004 18.4934 6.40034 6.01759 -123558 -156216 -98817.6 -31481.9 9185.26 2801.44 -7.41244 
541 2 2.07293 17.2977 6.39806 6.01068 -123437 -163945 105944 -21132.2 -18258.4 21235.5 -7.42665 
542 2 1.41683 16.0408 6.39658 6.02521 -118503 -159252 -112705 3330.97 -779.453 -3648.72 -7.41165 
543 2 2.17885 14.8449 6.39649 6.00667 -109917 -177239 105453 13080.2 9030.73 24354.9 -7.42666 
544 2 1.52188 13.5884 6.40034 6.01758 -120763 -158984 -98817.1 30053.5 -2166.45 -9354.62 -7.41244 