       N       E                     dE             d eps       ncg     rms          rms(c)
DAV:   1     0.866119648777E+04    0.86612E+04   -0.45610E+05  1656   0.107E+03
DAV:   2    -0.159059578636E+04   -0.10252E+05   -0.99094E+04  2028   0.299E+02
DAV:   3    -0.287402350240E+04   -0.12834E+04   -0.12748E+04  1740   0.110E+02
DAV:   4    -0.291503210448E+04   -0.41009E+02   -0.40827E+02  1848   0.228E+01
DAV:   5    -0.291648428314E+04   -0.14522E+01   -0.14499E+01  2004   0.355E+00    0.778E+01
RMM:   6    -0.278082039327E+04    0.13566E+03   -0.13260E+02  1488   0.108E+01    0.460E+01
RMM:   7    -0.273300088329E+04    0.47820E+02   -0.20807E+02  1488   0.133E+01    0.113E+01
RMM:   8    -0.273222836213E+04    0.77252E+00   -0.43376E+00  1508   0.212E+00    0.100E+00
RMM:   9    -0.273212565603E+04    0.10271E+00   -0.34556E-01  1567   0.514E-01    0.635E-01
RMM:  10    -0.273203867439E+04    0.86982E-01   -0.15230E-01  1488   0.317E-01    0.373E-01
RMM:  11    -0.273202986218E+04    0.88122E-02   -0.50823E-02  1519   0.156E-01    0.206E-01
RMM:  12    -0.273204394041E+04   -0.14078E-01   -0.31371E-02  1488   0.112E-01    0.132E-01
RMM:  13    -0.273206548868E+04   -0.21548E-01   -0.42607E-03  1494   0.568E-02    0.110E-01
RMM:  14    -0.273207544280E+04   -0.99541E-02   -0.15189E-03  1494   0.326E-02    0.399E-02
RMM:  15    -0.273209276483E+04   -0.17322E-01   -0.24320E-03  1488   0.310E-02    0.383E-02
RMM:  16    -0.273209534572E+04   -0.25809E-02   -0.22507E-04  1496   0.117E-02    0.115E-02
RMM:  17    -0.273209793008E+04   -0.25844E-02   -0.67510E-05  1539   0.735E-03    0.505E-03
RMM:  18    -0.273209852977E+04   -0.59969E-03   -0.11659E-05  1500   0.423E-03    0.158E-03
RMM:  19    -0.273209858800E+04   -0.58226E-04   -0.15744E-06  1459   0.141E-03    0.235E-03
RMM:  20    -0.273209860418E+04   -0.16181E-04   -0.55420E-07  1047   0.901E-04    0.275E-04
RMM:  21    -0.273209860453E+04   -0.35479E-06   -0.24497E-08   894   0.217E-04    0.137E-04
RMM:  22    -0.273209860474E+04   -0.20802E-06   -0.46074E-09   511   0.107E-04    0.437E-05
RMM:  23    -0.273209860475E+04   -0.10012E-07   -0.33150E-09   461   0.901E-05
   1 F= -.27576431E+04 E0= -.27576431E+04  d E =-.275764E+04
       N       E                     dE             d eps       ncg     rms          rms(c)
DAV:   1    -0.273145123683E+04    0.64737E+00   -0.69923E+01  1584   0.107E+01    0.250E+00
RMM:   2    -0.273145816165E+04   -0.69248E-02   -0.18100E+00  1488   0.156E+00    0.168E+00
RMM:   3    -0.273136387271E+04    0.94289E-01   -0.24650E-01  1488   0.536E-01    0.315E-01
RMM:   4    -0.273136334395E+04    0.52877E-03   -0.14679E-02  1554   0.128E-01    0.157E-01
RMM:   5    -0.273136441187E+04   -0.10679E-02   -0.17866E-03  1516   0.421E-02    0.457E-02
RMM:   6    -0.273136470047E+04   -0.28860E-03   -0.41643E-04  1522   0.196E-02    0.214E-02
RMM:   7    -0.273136530127E+04   -0.60080E-03   -0.10734E-04  1516   0.951E-03    0.132E-02
RMM:   8    -0.273136583156E+04   -0.53028E-03   -0.89441E-05  1488   0.680E-03    0.883E-03
RMM:   9    -0.273136606695E+04   -0.23540E-03   -0.60811E-05  1488   0.543E-03    0.508E-03
RMM:  10    -0.273136614013E+04   -0.73175E-04   -0.95100E-06  1497   0.252E-03    0.275E-03
RMM:  11    -0.273136614383E+04   -0.37047E-05   -0.13896E-06  1332   0.961E-04    0.147E-03
RMM:  12    -0.273136616378E+04   -0.19949E-04   -0.11752E-06  1297   0.137E-03    0.811E-04
RMM:  13    -0.273136616873E+04   -0.49494E-05   -0.10382E-07   914   0.453E-04    0.620E-04
RMM:  14    -0.273136617416E+04   -0.54320E-05   -0.12304E-07   924   0.431E-04    0.223E-04
RMM:  15    -0.273136617774E+04   -0.35783E-05   -0.42750E-08   892   0.247E-04    0.962E-05
RMM:  16    -0.273136617851E+04   -0.76721E-06   -0.14619E-08   831   0.134E-04    0.101E-04
RMM:  17    -0.273136617859E+04   -0.83746E-07   -0.18189E-09   394   0.705E-05
   2 F= -.27568858E+04 E0= -.27568858E+04  d E =0.757275E+00
       N       E                     dE             d eps       ncg     rms          rms(c)
DAV:   1    -0.273223006594E+04   -0.86389E+00   -0.43662E+01  1572   0.841E+00    0.203E+00
RMM:   2    -0.273221861674E+04    0.11449E-01   -0.99733E-01  1488   0.118E+00    0.130E+00
RMM:   3    -0.273216020033E+04    0.58416E-01   -0.16331E-01  1488   0.434E-01    0.185E-01
RMM:   4    -0.273216022039E+04   -0.20062E-04   -0.75610E-03  1546   0.916E-02    0.102E-01
RMM:   5    -0.273216040970E+04   -0.18931E-03   -0.12241E-03  1515   0.350E-02    0.337E-02
RMM:   6    -0.273216062223E+04   -0.21253E-03   -0.24322E-04  1522   0.147E-02    0.183E-02
RMM:   7    -0.273216088213E+04   -0.25990E-03   -0.47860E-05  1523   0.671E-03    0.885E-03
RMM:   8    -0.273216123989E+04   -0.35776E-03   -0.50618E-05  1489   0.541E-03    0.713E-03
RMM:   9    -0.273216138384E+04   -0.14396E-03   -0.27171E-05  1489   0.397E-03    0.435E-03
RMM:  10    -0.273216145942E+04   -0.75573E-04   -0.87710E-06  1489   0.205E-03    0.236E-03
RMM:  11    -0.273216146351E+04   -0.40941E-05   -0.81865E-07  1204   0.815E-04    0.959E-04
RMM:  12    -0.273216148830E+04   -0.24796E-04   -0.52293E-07  1046   0.739E-04    0.545E-04
RMM:  13    -0.273216149347E+04   -0.51683E-05   -0.64626E-08   896   0.278E-04    0.348E-04
RMM:  14    -0.273216150013E+04   -0.66586E-05   -0.93390E-08   922   0.262E-04    0.188E-04
RMM:  15    -0.273216150127E+04   -0.11431E-05   -0.14771E-08   501   0.109E-04    0.779E-05
RMM:  16    -0.273216150186E+04   -0.58224E-06   -0.11717E-08   678   0.118E-04    0.397E-05
RMM:  17    -0.273216150189E+04   -0.29177E-07   -0.76242E-10   317   0.673E-05
   3 F= -.27577019E+04 E0= -.27577019E+04  d E =-.588114E-01
       N       E                     dE             d eps       ncg     rms          rms(c)
DAV:   1    -0.273216127896E+04    0.22290E-03   -0.38002E-03  1548   0.786E-02    0.188E-02
RMM:   2    -0.273216127922E+04   -0.26438E-06   -0.90037E-05  1490   0.112E-02    0.123E-02
RMM:   3    -0.273216127508E+04    0.41431E-05   -0.15295E-05  1488   0.419E-03    0.172E-03
RMM:   4    -0.273216127510E+04   -0.17695E-07   -0.52465E-07  1092   0.795E-04
   4 F= -.27577018E+04 E0= -.27577018E+04  d E =-.586989E-01
