 vasp.5.4.4.18Apr17-6-g9f103f2a35 (build May 21 2018 20:56:50) complex           
 executed on             LinuxGNU date 2020.02.14  04:02:39
 running on   36 total cores
 distrk:  each k-point on   36 cores,    1 groups
 distr:  one band on NCORES_PER_BAND=   6 cores,    6 groups


--------------------------------------------------------------------------------------------------------


 INCAR:
 POTCAR:    PAW_PBE C 08Apr2002                   
 POTCAR:    PAW_PBE C 08Apr2002                   
   VRHFIN =C: s2p2                                                              
   LEXCH  = PE                                                                  
   EATOM  =   147.1560 eV,   10.8157 Ry                                         
                                                                                
   TITEL  = PAW_PBE C 08Apr2002                                                 
   LULTRA =        F    use ultrasoft PP ?                                      
   IUNSCR =        1    unscreen: 0-lin 1-nonlin 2-no                           
   RPACOR =    1.200    partial core radius                                     
   POMASS =   12.011; ZVAL   =    4.000    mass and valenz                      
   RCORE  =    1.500    outmost cutoff radius                                   
   RWIGS  =    1.630; RWIGS  =    0.863    wigner-seitz radius (au A)           
   ENMAX  =  400.000; ENMIN  =  300.000 eV                                      
   ICORE  =        2    local potential                                         
   LCOR   =        T    correct aug charges                                     
   LPAW   =        T    paw PP                                                  
   EAUG   =  644.873                                                            
   DEXC   =    0.000                                                            
   RMAX   =    1.529    core radius for proj-oper                               
   RAUG   =    1.300    factor for augmentation sphere                          
   RDEP   =    1.501    radius for radial grids                                 
   RDEPT  =    1.300    core radius for aug-charge                              
                                                                                
   Atomic configuration                                                         
    4 entries                                                                   
     n  l   j            E        occ.                                          
     1  0  0.50      -273.3789   2.0000                                         
     2  0  0.50       -13.7508   2.0000                                         
     2  1  0.50        -5.2854   2.0000                                         
     3  2  1.50        -5.4423   0.0000                                         
   Description                                                                  
     l       E           TYP  RCUT    TYP  RCUT                                 
     0    -13.7508458     23  1.200                                             
     0     -8.2022199     23  1.200                                             
     1     -5.2854383     23  1.500                                             
     1     34.0145650     23  1.500                                             
     2     -5.4423304      7  1.500                                             
  local pseudopotential read in
  partial core-charges read in
  partial kinetic energy density read in
  atomic valenz-charges read in
  non local Contribution for L=           0  read in
    real space projection operators read in
  non local Contribution for L=           0  read in
    real space projection operators read in
  non local Contribution for L=           1  read in
    real space projection operators read in
  non local Contribution for L=           1  read in
    real space projection operators read in
    PAW grid and wavefunctions read in

   number of l-projection  operators is LMAX  =           4
   number of lm-projection operators is LMMAX =           8

 Optimization of the real space projectors (new method)

 maximal supplied QI-value         = 25.13
 optimisation between [QCUT,QGAM] = [ 10.05, 20.36] = [ 28.30,116.06] Ry 
 Optimized for a Real-space Cutoff    1.30 Angstroem

   l    n(q)    QCUT    max X(q) W(low)/X(q) W(high)/X(q)  e(spline) 
   0      8    10.053   115.676    0.49E-03    0.72E-03    0.18E-06
   0      8    10.053    87.132    0.49E-03    0.71E-03    0.18E-06
   1      7    10.053     4.429    0.32E-03    0.31E-03    0.18E-06
   1      7    10.053     2.733    0.23E-03    0.19E-03    0.20E-06
  PAW_PBE C 08Apr2002                   :
 energy of atom  1       EATOM= -147.1560
 kinetic energy error for atom=    0.0288 (will be added to EATOM!!)


 POSCAR: POSCAR file written by OVITO            
  positions in cartesian coordinates
  velocities in cartesian coordinates
  No initial velocities read in
 exchange correlation table for  LEXCH =        8
   RHO(1)=    0.500       N(1)  =     2000
   RHO(2)=  100.500       N(2)  =     4000



--------------------------------------------------------------------------------------------------------


 ion  position               nearest neighbor table
   1  0.041  0.950  0.408-   6 1.42 132 1.42  26 1.42
   2  0.027  0.856  0.408- 132 1.42 133 1.42   8 1.42
   3  0.013  0.761  0.408- 134 1.42 133 1.42  10 1.42
   4  0.000  0.667  0.408-  12 1.42 135 1.42 134 1.42
   5  0.189  0.991  0.408-  27 1.42   6 1.42  47 1.42
   6  0.135  0.946  0.408-   1 1.42   5 1.42   7 1.42
   7  0.176  0.896  0.408-  29 1.42   6 1.42   8 1.42
   8  0.122  0.851  0.408-   9 1.42   7 1.42   2 1.42
   9  0.162  0.802  0.408-  31 1.42   8 1.42  10 1.42
  10  0.108  0.757  0.408-  11 1.42   9 1.42   3 1.42
  11  0.149  0.707  0.408-  10 1.42  12 1.42  33 1.42
  12  0.095  0.662  0.408-   4 1.42  11 1.42  13 1.42
  13  0.135  0.613  0.408-  12 1.42  14 1.42  35 1.42
  14  0.081  0.568  0.408-  15 1.42 136 1.42  13 1.42
  15  0.122  0.518  0.408-  37 1.42  14 1.42  16 1.42
  16  0.068  0.473  0.408-  17 1.42 138 1.42  15 1.42
  17  0.108  0.423  0.408-  39 1.42  18 1.42  16 1.42
  18  0.054  0.378  0.408-  17 1.42 140 1.42  19 1.42
  19  0.095  0.329  0.408-  20 1.42  18 1.42  41 1.42
  20  0.041  0.284  0.408-  19 1.42  21 1.42 142 1.42
  21  0.081  0.234  0.408-  20 1.42  22 1.42  43 1.42
  22  0.027  0.189  0.408- 144 1.42  23 1.42  21 1.42
  23  0.068  0.140  0.408-  24 1.42  22 1.42  45 1.42
  24  0.013  0.095  0.408-  23 1.42 146 1.42  25 1.42
  25  0.054  0.045  0.408-  47 1.42  26 1.42  24 1.42
  26  0.000  0.000  0.408-  25 1.42 148 1.42   1 1.42
  27  0.284  0.986  0.408-   5 1.42  28 1.42  68 1.42
  28  0.324  0.937  0.408-  29 1.42  27 1.42  49 1.42
  29  0.270  0.892  0.408-   7 1.42  28 1.42  30 1.42
  30  0.311  0.842  0.408-  51 1.42  29 1.42  31 1.42
  31  0.257  0.797  0.408-   9 1.42  32 1.42  30 1.42
  32  0.297  0.748  0.408-  53 1.42  31 1.42  33 1.42
  33  0.243  0.703  0.408-  34 1.42  32 1.42  11 1.42
  34  0.284  0.653  0.408-  35 1.42  33 1.42  55 1.42
  35  0.230  0.608  0.408-  34 1.42  36 1.42  13 1.42
  36  0.270  0.559  0.408-  35 1.42  37 1.42  57 1.42
  37  0.216  0.514  0.408-  15 1.42  38 1.42  36 1.42
  38  0.257  0.464  0.408-  59 1.42  37 1.42  39 1.42
  39  0.203  0.419  0.408-  17 1.42  40 1.42  38 1.42
  40  0.243  0.369  0.408-  61 1.42  41 1.42  39 1.42
  41  0.189  0.324  0.408-  40 1.42  42 1.42  19 1.42
  42  0.230  0.275  0.408-  63 1.42  41 1.42  43 1.42
  43  0.176  0.230  0.408-  44 1.42  42 1.42  21 1.42
  44  0.216  0.180  0.408-  43 1.42  45 1.42  65 1.42
  45  0.162  0.135  0.408-  46 1.42  44 1.42  23 1.42
  46  0.203  0.086  0.408-  45 1.42  47 1.42  67 1.42
  47  0.149  0.041  0.408-  25 1.42  46 1.42   5 1.42
  48  0.473  0.977  0.408-  49 1.42  89 1.42  69 1.42
  49  0.419  0.932  0.408-  48 1.42  50 1.42  28 1.42
  50  0.459  0.883  0.408-  51 1.42  49 1.42  71 1.42
  51  0.405  0.838  0.408-  30 1.42  50 1.42  52 1.42
  52  0.446  0.788  0.408-  73 1.42  51 1.42  53 1.42
  53  0.392  0.743  0.408-  32 1.42  54 1.42  52 1.42
  54  0.432  0.694  0.408-  75 1.42  53 1.42  55 1.42
  55  0.378  0.649  0.408-  56 1.42  54 1.42  34 1.42
  56  0.419  0.599  0.408-  77 1.42  57 1.42  55 1.42
  57  0.365  0.554  0.408-  58 1.42  56 1.42  36 1.42
  58  0.405  0.505  0.408-  57 1.42  59 1.42  79 1.42
  59  0.351  0.459  0.408-  38 1.42  60 1.42  58 1.42
  60  0.392  0.410  0.408-  59 1.42  61 1.42  81 1.42
  61  0.338  0.365  0.408-  40 1.42  62 1.42  60 1.42
  62  0.378  0.315  0.408-  83 1.42  63 1.42  61 1.42
  63  0.324  0.270  0.408-  42 1.42  62 1.42  64 1.42
  64  0.365  0.221  0.408-  85 1.42  63 1.42  65 1.42
  65  0.311  0.176  0.408-  66 1.42  64 1.42  44 1.42
  66  0.351  0.126  0.408-  65 1.42  67 1.42  87 1.42
  67  0.297  0.081  0.408-  68 1.42  66 1.42  46 1.42
  68  0.338  0.032  0.408-  67 1.42  27 1.42  89 1.42
  69  0.568  0.973  0.408-  70 1.42 110 1.42  48 1.42
  70  0.608  0.923  0.408-  71 1.42  69 1.42  91 1.42
  71  0.554  0.878  0.408-  70 1.42  72 1.42  50 1.42
  72  0.595  0.829  0.408-  73 1.42  71 1.42  93 1.42
  73  0.541  0.784  0.408-  52 1.42  72 1.42  74 1.42
  74  0.581  0.734  0.408-  73 1.42  75 1.42  95 1.42
  75  0.527  0.689  0.408-  54 1.42  76 1.42  74 1.42
  76  0.568  0.640  0.408-  97 1.42  77 1.42  75 1.42
  77  0.514  0.595  0.408-  56 1.42  76 1.42  78 1.42
  78  0.554  0.545  0.408-  99 1.42  79 1.42  77 1.42
  79  0.500  0.500  0.408-  80 1.42  78 1.42  58 1.42
  80  0.541  0.450  0.408-  79 1.42  81 1.42 101 1.42
  81  0.487  0.405  0.408-  82 1.42  80 1.42  60 1.42
  82  0.527  0.356  0.408-  81 1.42  83 1.42 103 1.42
  83  0.473  0.311  0.408-  62 1.42  82 1.42  84 1.42
  84  0.514  0.261  0.408- 105 1.42  85 1.42  83 1.42
  85  0.459  0.216  0.408-  64 1.42  84 1.42  86 1.42
  86  0.500  0.167  0.408- 107 1.42  85 1.42  87 1.42
  87  0.446  0.122  0.408-  88 1.42  86 1.42  66 1.42
  88  0.487  0.072  0.408- 109 1.42  87 1.42  89 1.42
  89  0.432  0.027  0.408-  48 1.42  88 1.42  68 1.42
  90  0.757  0.964  0.408- 111 1.42 131 1.42  91 1.42
  91  0.703  0.919  0.408-  92 1.42  90 1.42  70 1.42
  92  0.743  0.869  0.408- 113 1.42  93 1.42  91 1.42
  93  0.689  0.824  0.408-  92 1.42  94 1.42  72 1.42
  94  0.730  0.775  0.408-  95 1.42  93 1.42 115 1.42
  95  0.676  0.730  0.408-  94 1.42  96 1.42  74 1.42
  96  0.716  0.680  0.408-  95 1.42  97 1.42 117 1.42
  97  0.662  0.635  0.408-  76 1.42  98 1.42  96 1.42
  98  0.703  0.586  0.408- 119 1.42  99 1.42  97 1.42
  99  0.649  0.541  0.408-  78 1.42  98 1.42 100 1.42
 100  0.689  0.491  0.408- 121 1.42 101 1.42  99 1.42
 101  0.635  0.446  0.408- 100 1.42 102 1.42  80 1.42
 102  0.676  0.396  0.408- 123 1.42 101 1.42 103 1.42
 103  0.622  0.351  0.408- 104 1.42 102 1.42  82 1.42
 104  0.662  0.302  0.408- 103 1.42 105 1.42 125 1.42
 105  0.608  0.257  0.408-  84 1.42 104 1.42 106 1.42
 106  0.649  0.207  0.408- 107 1.42 127 1.42 105 1.42
 107  0.595  0.162  0.408-  86 1.42 106 1.42 108 1.42
 108  0.635  0.113  0.408- 129 1.42 107 1.42 109 1.42
 109  0.581  0.068  0.408-  88 1.42 110 1.42 108 1.42
 110  0.622  0.018  0.408- 131 1.42 109 1.42  69 1.42
 111  0.851  0.959  0.408-  90 1.42 112 1.42 148 1.42
 112  0.892  0.910  0.408- 132 1.42 111 1.42 113 1.42
 113  0.838  0.865  0.408-  92 1.42 114 1.42 112 1.42
 114  0.878  0.815  0.408- 133 1.42 115 1.42 113 1.42
 115  0.824  0.770  0.408- 114 1.42 116 1.42  94 1.42
 116  0.865  0.721  0.408- 117 1.42 115 1.42 134 1.42
 117  0.811  0.676  0.408- 116 1.42 118 1.42  96 1.42
 118  0.851  0.626  0.408- 117 1.42 119 1.42 135 1.42
 119  0.797  0.581  0.408-  98 1.42 120 1.42 118 1.42
 120  0.838  0.532  0.408- 121 1.42 119 1.42 137 1.42
 121  0.784  0.487  0.408- 100 1.42 120 1.42 122 1.42
 122  0.824  0.437  0.408- 139 1.42 123 1.42 121 1.42
 123  0.770  0.392  0.408- 102 1.42 122 1.42 124 1.42
 124  0.811  0.342  0.408- 141 1.42 123 1.42 125 1.42
 125  0.757  0.297  0.408- 126 1.42 124 1.42 104 1.42
 126  0.797  0.248  0.408- 127 1.42 125 1.42 143 1.42
 127  0.743  0.203  0.408- 126 1.42 128 1.42 106 1.42
 128  0.784  0.153  0.408- 129 1.42 127 1.42 145 1.42
 129  0.730  0.108  0.408- 108 1.42 128 1.42 130 1.42
 130  0.770  0.059  0.408- 147 1.42 129 1.42 131 1.42
 131  0.716  0.014  0.408- 110 1.42  90 1.42 130 1.42
 132  0.986  0.905  0.408- 112 1.42   2 1.42   1 1.42
 133  0.973  0.811  0.408- 114 1.42   3 1.42   2 1.42
 134  0.959  0.716  0.408-   3 1.42 116 1.42   4 1.42
 135  0.946  0.622  0.408-   4 1.42 136 1.42 118 1.42
 136  0.986  0.572  0.408- 135 1.42 137 1.42  14 1.42
 137  0.932  0.527  0.408- 138 1.42 136 1.42 120 1.42
 138  0.973  0.477  0.408- 137 1.42 139 1.42  16 1.42
 139  0.919  0.432  0.408- 122 1.42 138 1.42 140 1.42
 140  0.959  0.383  0.408- 141 1.42  18 1.42 139 1.42
 141  0.905  0.338  0.408- 124 1.42 140 1.42 142 1.42
 142  0.946  0.288  0.408- 141 1.42  20 1.42 143 1.42
 143  0.892  0.243  0.408- 144 1.42 142 1.42 126 1.42
 144  0.932  0.194  0.408-  22 1.42 145 1.42 143 1.42
 145  0.878  0.149  0.408- 144 1.42 146 1.42 128 1.42
 146  0.919  0.099  0.408- 147 1.42  24 1.42 145 1.42
 147  0.865  0.054  0.408- 130 1.42 146 1.42 148 1.42
 148  0.905  0.005  0.408- 147 1.42  26 1.42 111 1.42
 149  0.000  0.333  0.592- 167 1.42 294 1.42 293 1.42
 150  0.013  0.239  0.592- 294 1.42 169 1.42 295 1.42
 151  0.027  0.144  0.592- 295 1.42 296 1.42 171 1.42
 152  0.041  0.050  0.592- 173 1.42 153 1.42 296 1.42
 153  0.000  0.000  0.592- 152 1.42 280 1.42 154 1.42
 154  0.054  0.955  0.592- 175 1.42 155 1.42 153 1.42
 155  0.013  0.905  0.592- 156 1.42 154 1.42 282 1.42
 156  0.068  0.860  0.592- 155 1.42 177 1.42 157 1.42
 157  0.027  0.811  0.592- 284 1.42 158 1.42 156 1.42
 158  0.081  0.766  0.592- 159 1.42 157 1.42 179 1.42
 159  0.041  0.716  0.592- 158 1.42 160 1.42 286 1.42
 160  0.095  0.671  0.592- 161 1.42 159 1.42 181 1.42
 161  0.054  0.622  0.592- 160 1.42 162 1.42 288 1.42
 162  0.108  0.577  0.592- 183 1.42 161 1.42 163 1.42
 163  0.068  0.527  0.592- 164 1.42 290 1.42 162 1.42
 164  0.122  0.482  0.592- 185 1.42 163 1.42 165 1.42
 165  0.081  0.432  0.592- 164 1.42 292 1.42 166 1.42
 166  0.135  0.387  0.592- 167 1.42 165 1.42 187 1.42
 167  0.095  0.338  0.592- 149 1.42 168 1.42 166 1.42
 168  0.149  0.293  0.592- 167 1.42 169 1.42 189 1.42
 169  0.108  0.243  0.592- 170 1.42 168 1.42 150 1.42
 170  0.162  0.198  0.592- 191 1.42 169 1.42 171 1.42
 171  0.122  0.149  0.592- 170 1.42 172 1.42 151 1.42
 172  0.176  0.104  0.592- 193 1.42 173 1.42 171 1.42
 173  0.135  0.054  0.592- 152 1.42 172 1.42 174 1.42
 174  0.189  0.009  0.592- 195 1.42 175 1.42 173 1.42
 175  0.149  0.959  0.592- 154 1.42 174 1.42 176 1.42
 176  0.203  0.914  0.592- 175 1.42 177 1.42 197 1.42
 177  0.162  0.865  0.592- 178 1.42 176 1.42 156 1.42
 178  0.216  0.820  0.592- 177 1.42 179 1.42 199 1.42
 179  0.176  0.770  0.592- 178 1.42 180 1.42 158 1.42
 180  0.230  0.725  0.592- 201 1.42 181 1.42 179 1.42
 181  0.189  0.676  0.592- 182 1.42 180 1.42 160 1.42
 182  0.243  0.631  0.592- 203 1.42 181 1.42 183 1.42
 183  0.203  0.581  0.592- 162 1.42 184 1.42 182 1.42
 184  0.257  0.536  0.592- 205 1.42 183 1.42 185 1.42
 185  0.216  0.487  0.592- 164 1.42 184 1.42 186 1.42
 186  0.270  0.441  0.592- 187 1.42 185 1.42 207 1.42
 187  0.230  0.392  0.592- 186 1.42 188 1.42 166 1.42
 188  0.284  0.347  0.592- 189 1.42 187 1.42 209 1.42
 189  0.243  0.297  0.592- 188 1.42 190 1.42 168 1.42
 190  0.297  0.252  0.592- 211 1.42 189 1.42 191 1.42
 191  0.257  0.203  0.592- 170 1.42 190 1.42 192 1.42
 192  0.311  0.158  0.592- 213 1.42 193 1.42 191 1.42
 193  0.270  0.108  0.592- 172 1.42 192 1.42 194 1.42
 194  0.324  0.063  0.592- 195 1.42 193 1.42 215 1.42
 195  0.284  0.014  0.592- 174 1.42 194 1.42 196 1.42
 196  0.338  0.968  0.592- 197 1.42 195 1.42 217 1.42
 197  0.297  0.919  0.592- 198 1.42 196 1.42 176 1.42
 198  0.351  0.874  0.592- 197 1.42 199 1.42 219 1.42
 199  0.311  0.824  0.592- 198 1.42 200 1.42 178 1.42
 200  0.365  0.779  0.592- 221 1.42 201 1.42 199 1.42
 201  0.324  0.730  0.592- 180 1.42 200 1.42 202 1.42
 202  0.378  0.685  0.592- 223 1.42 203 1.42 201 1.42
 203  0.338  0.635  0.592- 182 1.42 204 1.42 202 1.42
 204  0.392  0.590  0.592- 203 1.42 205 1.42 225 1.42
 205  0.351  0.541  0.592- 184 1.42 204 1.42 206 1.42
 206  0.405  0.495  0.592- 207 1.42 205 1.42 227 1.42
 207  0.365  0.446  0.592- 206 1.42 208 1.42 186 1.42
 208  0.419  0.401  0.592- 229 1.42 209 1.42 207 1.42
 209  0.378  0.351  0.592- 210 1.42 208 1.42 188 1.42
 210  0.432  0.306  0.592- 231 1.42 209 1.42 211 1.42
 211  0.392  0.257  0.592- 190 1.42 210 1.42 212 1.42
 212  0.446  0.212  0.592- 233 1.42 213 1.42 211 1.42
 213  0.405  0.162  0.592- 192 1.42 212 1.42 214 1.42
 214  0.459  0.117  0.592- 215 1.42 213 1.42 235 1.42
 215  0.419  0.068  0.592- 216 1.42 214 1.42 194 1.42
 216  0.473  0.023  0.592- 215 1.42 217 1.42 237 1.42
 217  0.432  0.973  0.592- 218 1.42 216 1.42 196 1.42
 218  0.487  0.928  0.592- 239 1.42 217 1.42 219 1.42
 219  0.446  0.878  0.592- 218 1.42 220 1.42 198 1.42
 220  0.500  0.833  0.592- 241 1.42 221 1.42 219 1.42
 221  0.459  0.784  0.592- 200 1.42 220 1.42 222 1.42
 222  0.514  0.739  0.592- 243 1.42 223 1.42 221 1.42
 223  0.473  0.689  0.592- 202 1.42 224 1.42 222 1.42
 224  0.527  0.644  0.592- 225 1.42 223 1.42 245 1.42
 225  0.487  0.595  0.592- 224 1.42 226 1.42 204 1.42
 226  0.541  0.550  0.592- 227 1.42 225 1.42 247 1.42
 227  0.500  0.500  0.592- 226 1.42 228 1.42 206 1.42
 228  0.554  0.455  0.592- 249 1.42 229 1.42 227 1.42
 229  0.514  0.405  0.592- 208 1.42 230 1.42 228 1.42
 230  0.568  0.360  0.592- 251 1.42 229 1.42 231 1.42
 231  0.527  0.311  0.592- 210 1.42 230 1.42 232 1.42
 232  0.581  0.266  0.592- 233 1.42 231 1.42 253 1.42
 233  0.541  0.216  0.592- 212 1.42 232 1.42 234 1.42
 234  0.595  0.171  0.592- 235 1.42 233 1.42 255 1.42
 235  0.554  0.122  0.592- 236 1.42 234 1.42 214 1.42
 236  0.608  0.077  0.592- 235 1.42 237 1.42 257 1.42
 237  0.568  0.027  0.592- 238 1.42 236 1.42 216 1.42
 238  0.622  0.982  0.592- 259 1.42 237 1.42 239 1.42
 239  0.581  0.932  0.592- 218 1.42 238 1.42 240 1.42
 240  0.635  0.887  0.592- 261 1.42 241 1.42 239 1.42
 241  0.595  0.838  0.592- 220 1.42 240 1.42 242 1.42
 242  0.649  0.793  0.592- 243 1.42 241 1.42 263 1.42
 243  0.608  0.743  0.592- 222 1.42 244 1.42 242 1.42
 244  0.662  0.698  0.592- 243 1.42 245 1.42 265 1.42
 245  0.622  0.649  0.592- 246 1.42 244 1.42 224 1.42
 246  0.676  0.604  0.592- 267 1.42 245 1.42 247 1.42
 247  0.635  0.554  0.592- 246 1.42 248 1.42 226 1.42
 248  0.689  0.509  0.592- 269 1.42 249 1.42 247 1.42
 249  0.649  0.459  0.592- 228 1.42 250 1.42 248 1.42
 250  0.703  0.414  0.592- 271 1.42 249 1.42 251 1.42
 251  0.662  0.365  0.592- 230 1.42 252 1.42 250 1.42
 252  0.716  0.320  0.592- 253 1.42 251 1.42 273 1.42
 253  0.676  0.270  0.592- 252 1.42 254 1.42 232 1.42
 254  0.730  0.225  0.592- 255 1.42 253 1.42 275 1.42
 255  0.689  0.176  0.592- 254 1.42 256 1.42 234 1.42
 256  0.743  0.131  0.592- 277 1.42 255 1.42 257 1.42
 257  0.703  0.081  0.592- 258 1.42 236 1.42 256 1.42
 258  0.757  0.036  0.592- 279 1.42 257 1.42 259 1.42
 259  0.716  0.986  0.592- 238 1.42 260 1.42 258 1.42
 260  0.770  0.941  0.592- 281 1.42 259 1.42 261 1.42
 261  0.730  0.892  0.592- 240 1.42 260 1.42 262 1.42
 262  0.784  0.847  0.592- 263 1.42 261 1.42 283 1.42
 263  0.743  0.797  0.592- 264 1.42 262 1.42 242 1.42
 264  0.797  0.752  0.592- 263 1.42 265 1.42 285 1.42
 265  0.757  0.703  0.592- 266 1.42 264 1.42 244 1.42
 266  0.811  0.658  0.592- 287 1.42 265 1.42 267 1.42
 267  0.770  0.608  0.592- 246 1.42 266 1.42 268 1.42
 268  0.824  0.563  0.592- 289 1.42 269 1.42 267 1.42
 269  0.784  0.514  0.592- 248 1.42 270 1.42 268 1.42
 270  0.838  0.468  0.592- 269 1.42 291 1.42 271 1.42
 271  0.797  0.419  0.592- 250 1.42 272 1.42 270 1.42
 272  0.851  0.374  0.592- 273 1.42 271 1.42 293 1.42
 273  0.811  0.324  0.592- 272 1.42 274 1.42 252 1.42
 274  0.865  0.279  0.592- 275 1.42 273 1.42 294 1.42
 275  0.824  0.230  0.592- 274 1.42 276 1.42 254 1.42
 276  0.878  0.185  0.592- 295 1.42 275 1.42 277 1.42
 277  0.838  0.135  0.592- 256 1.42 278 1.42 276 1.42
 278  0.892  0.090  0.592- 296 1.42 277 1.42 279 1.42
 279  0.851  0.041  0.592- 258 1.42 278 1.42 280 1.42
 280  0.905  0.995  0.592- 281 1.42 153 1.42 279 1.42
 281  0.865  0.946  0.592- 260 1.42 280 1.42 282 1.42
 282  0.919  0.901  0.592- 283 1.42 155 1.42 281 1.42
 283  0.878  0.851  0.592- 282 1.42 284 1.42 262 1.42
 284  0.932  0.806  0.592- 157 1.42 283 1.42 285 1.42
 285  0.892  0.757  0.592- 286 1.42 264 1.42 284 1.42
 286  0.946  0.712  0.592- 285 1.42 287 1.42 159 1.42
 287  0.905  0.662  0.592- 266 1.42 286 1.42 288 1.42
 288  0.959  0.617  0.592- 289 1.42 161 1.42 287 1.42
 289  0.919  0.568  0.592- 268 1.42 290 1.42 288 1.42
 290  0.973  0.523  0.592- 289 1.42 163 1.42 291 1.42
 291  0.932  0.473  0.592- 292 1.42 290 1.42 270 1.42
 292  0.986  0.428  0.592- 291 1.42 293 1.42 165 1.42
 293  0.946  0.378  0.592- 292 1.42 149 1.42 272 1.42
 294  0.959  0.284  0.592- 150 1.42 149 1.42 274 1.42
 295  0.973  0.189  0.592- 276 1.42 151 1.42 150 1.42
 296  0.986  0.095  0.592- 278 1.42 151 1.42 152 1.42

  LATTYP: Found a simple orthorhombic cell.
 ALAT       =    14.9635954000
 B/A-ratio  =     1.2296509701
 C/A-ratio  =     1.7320508011
  
  Lattice vectors:
  
 A1 = ( -14.9635954000,   0.0000000000,   0.0000000000)
 A2 = (   0.0000000000,   0.0000000000, -18.3999996000)
 A3 = (   0.0000000000, -25.9177074000,   0.0000000000)


Analysis of symmetry for initial positions (statically):
=====================================================================
 Subroutine PRICEL returns:
 Original cell was already a primitive cell.
 

 Routine SETGRP: Setting up the symmetry group for a 
 simple orthorhombic supercell.


 Subroutine GETGRP returns: Found  1 space group operations
 (whereof  1 operations were pure point group operations)
 out of a pool of  8 trial point group operations.


The static configuration has the point symmetry C_1 .


Analysis of symmetry for dynamics (positions and initial velocities):
=====================================================================
 Subroutine PRICEL returns:
 Original cell was already a primitive cell.
 

 Routine SETGRP: Setting up the symmetry group for a 
 simple orthorhombic supercell.


 Subroutine GETGRP returns: Found  1 space group operations
 (whereof  1 operations were pure point group operations)
 out of a pool of  8 trial point group operations.


The dynamic configuration has the point symmetry C_1 .


 Subroutine INISYM returns: Found  1 space group operations
 (whereof  1 operations are pure point group operations),
 and found     1 'primitive' translations



 KPOINTS: K-Points                                

Automatic generation of k-mesh.
Space group operators:
 irot       det(A)        alpha          n_x          n_y          n_z        tau_x        tau_y        tau_z
    1     1.000000     0.000000     1.000000     0.000000     0.000000     0.000000     0.000000     0.000000
 
 Subroutine IBZKPT returns following result:
 ===========================================
 
 Found      1 irreducible k-points:
 
 Following reciprocal coordinates:
            Coordinates               Weight
  0.000000  0.000000  0.000000      1.000000
 
 Following cartesian coordinates:
            Coordinates               Weight
  0.000000  0.000000  0.000000      1.000000
 


--------------------------------------------------------------------------------------------------------




 Dimension of arrays:
   k-points           NKPTS =      1   k-points in BZ     NKDIM =      1   number of bands    NBANDS=    744
   number of dos      NEDOS =    301   number of ions     NIONS =    296
   non local maximal  LDIM  =      4   non local SUM 2l+1 LMDIM =      8
   total plane-waves  NPLWV = 921600
   max r-space proj   IRMAX =   1242   max aug-charges    IRDMAX=   1723
   dimension x,y,z NGX =    80 NGY =  128 NGZ =   90
   dimension x,y,z NGXF=   160 NGYF=  256 NGZF=  180
   support grid    NGXF=   160 NGYF=  256 NGZF=  180
   ions per type =             296
   NGX,Y,Z   is equivalent  to a cutoff of   8.89,  8.21,  8.13 a.u.
   NGXF,Y,Z  is equivalent  to a cutoff of  17.78, 16.42, 16.26 a.u.

 SYSTEM =  unknown system                          
 POSCAR =  POSCAR file written by OVITO            

 Startparameter for this run:
   NWRITE =      2    write-flag & timer
   PREC   = normal    normal or accurate (medium, high low for compatibility)
   ISTART =      0    job   : 0-new  1-cont  2-samecut
   ICHARG =      2    charge: 1-file 2-atom 10-const
   ISPIN  =      1    spin polarized calculation?
   LNONCOLLINEAR =      F non collinear calculations
   LSORBIT =      F    spin-orbit coupling
   INIWAV =      1    electr: 0-lowe 1-rand  2-diag
   LASPH  =      F    aspherical Exc in radial PAW
   METAGGA=      F    non-selfconsistent MetaGGA calc.

 Electronic Relaxation 1
   ENCUT  =  400.0 eV  29.40 Ry    5.42 a.u.  24.40 42.27 30.01*2*pi/ulx,y,z
   ENINI  =  400.0     initial cutoff
   ENAUG  =  644.9 eV  augmentation charge cutoff
   NELM   =     60;   NELMIN=  2; NELMDL= -5     # of ELM steps 
   EDIFF  = 0.1E-06   stopping-criterion for ELM
   LREAL  =      T    real-space projection
   NLSPLINE    = F    spline interpolate recip. space projectors
   LCOMPAT=      F    compatible to vasp.4.4
   GGA_COMPAT  = T    GGA compatible to vasp.4.4-vasp.4.6
   LMAXPAW     = -100 max onsite density
   LMAXMIX     =    2 max onsite mixed and CHGCAR
   VOSKOWN=      0    Vosko Wilk Nusair interpolation
   ROPT   =   -0.00050
 Ionic relaxation
   EDIFFG = -.5E-01   stopping-criterion for IOM
   NSW    =     50    number of steps for IOM
   NBLOCK =      1;   KBLOCK =     50    inner block; outer block 
   IBRION =      2    ionic relax: 0-MD 1-quasi-New 2-CG
   NFREE  =      1    steps in history (QN), initial steepest desc. (CG)
   ISIF   =      4    stress and relaxation
   IWAVPR =     11    prediction:  0-non 1-charg 2-wave 3-comb
   ISYM   =      2    0-nonsym 1-usesym 2-fastsym
   LCORR  =      T    Harris-Foulkes like correction to forces

   POTIM  = 0.5000    time-step for ionic-motion
   TEIN   =    0.0    initial temperature
   TEBEG  =    0.0;   TEEND  =   0.0 temperature during run
   SMASS  =  -3.00    Nose mass-parameter (am)
   estimated Nose-frequenzy (Omega)   =  0.10E-29 period in steps =****** mass=  -0.512E-26a.u.
   SCALEE = 1.0000    scale energy and forces
   NPACO  =    256;   APACO  = 16.0  distance and # of slots for P.C.
   PSTRESS=    0.0 pullay stress

  Mass of Ions in am
   POMASS =  12.01
  Ionic Valenz
   ZVAL   =   4.00
  Atomic Wigner-Seitz radii
   RWIGS  =  -1.00
  virtual crystal weights 
   VCA    =   1.00
   NELECT =    1184.0000    total number of electrons
   NUPDOWN=      -1.0000    fix difference up-down

 DOS related values:
   EMIN   =  10.00;   EMAX   =-10.00  energy-range for DOS
   EFERMI =   0.00
   ISMEAR =     0;   SIGMA  =   0.05  broadening in eV -4-tet -1-fermi 0-gaus

 Electronic relaxation 2 (details)
   IALGO  =     68    algorithm
   LDIAG  =      T    sub-space diagonalisation (order eigenvalues)
   LSUBROT=      F    optimize rotation matrix (better conditioning)
   TURBO    =      0    0=normal 1=particle mesh
   IRESTART =      0    0=no restart 2=restart with 2 vectors
   NREBOOT  =      0    no. of reboots
   NMIN     =      0    reboot dimension
   EREF     =   0.00    reference energy to select bands
   IMIX   =      4    mixing-type and parameters
     AMIX     =   0.40;   BMIX     =  1.00
     AMIX_MAG =   1.60;   BMIX_MAG =  1.00
     AMIN     =   0.10
     WC   =   100.;   INIMIX=   1;  MIXPRE=   1;  MAXMIX= -45

 Intra band minimization:
   WEIMIN = 0.0010     energy-eigenvalue tresh-hold
   EBREAK =  0.34E-10  absolut break condition
   DEPER  =   0.30     relativ break condition  

   TIME   =   0.40     timestep for ELM

  volume/ion in A,a.u.               =      24.11       162.69
  Fermi-wavevector in a.u.,A,eV,Ry     =   0.899584  1.699968 11.010545  0.809252
  Thomas-Fermi vector in A             =   2.022436

 Write flags
   LWAVE        =      T    write WAVECAR
   LDOWNSAMPLE  =      F    k-point downsampling of WAVECAR
   LCHARG       =      T    write CHGCAR
   LVTOT        =      F    write LOCPOT, total local potential
   LVHAR        =      F    write LOCPOT, Hartree potential only
   LELF         =      F    write electronic localiz. function (ELF)
   LORBIT       =     11    0 simple, 1 ext, 2 COOP (PROOUT), +10 PAW based schemes


 Dipole corrections
   LMONO  =      F    monopole corrections only (constant potential shift)
   LDIPOL =      F    correct potential (dipole corrections)
   IDIPOL =      0    1-x, 2-y, 3-z, 4-all directions 
   EPSILON=  1.0000000 bulk dielectric constant

 Exchange correlation treatment:
   GGA     =    --    GGA type
   LEXCH   =     8    internal setting for exchange type
   VOSKOWN=      0    Vosko Wilk Nusair interpolation
   LHFCALC =     F    Hartree Fock is set to
   LHFONE  =     F    Hartree Fock one center treatment
   AEXX    =    0.0000 exact exchange contribution

 Linear response parameters
   LEPSILON=     F    determine dielectric tensor
   LRPA    =     F    only Hartree local field effects (RPA)
   LNABLA  =     F    use nabla operator in PAW spheres
   LVEL    =     F    velocity operator in full k-point grid
   LINTERFAST=   F  fast interpolation
   KINTER  =     0    interpolate to denser k-point grid
   CSHIFT  =0.1000    complex shift for real part using Kramers Kronig
   OMEGAMAX=  -1.0    maximum frequency
   DEG_THRESHOLD= 0.2000000E-02 threshold for treating states as degnerate
   RTIME   =   -0.100 relaxation time in fs
  (WPLASMAI=    0.000 imaginary part of plasma frequency in eV, 0.658/RTIME)
   DFIELD  = 0.0000000 0.0000000 0.0000000 field for delta impulse in time

 Orbital magnetization related:
   ORBITALMAG=     F  switch on orbital magnetization
   LCHIMAG   =     F  perturbation theory with respect to B field
   DQ        =  0.001000  dq finite difference perturbation B field
   LLRAUG    =     F  two centre corrections for induced B field



--------------------------------------------------------------------------------------------------------


 conjugate gradient relaxation of ions
 charge density and potential will be updated during run
 non-spin polarized calculation
 RMM-DIIS sequential band-by-band and
  variant of blocked Davidson during initial phase
 perform sub-space diagonalisation
    before iterative eigenvector-optimisation
 modified Broyden-mixing scheme, WC =      100.0
 initial mixing is a Kerker type mixing with AMIX =  0.4000 and BMIX =      1.0000
 Hartree-type preconditioning will be used
 using additional bands          152
 real space projection scheme for non local part
 use partial core corrections
 calculate Harris-corrections to forces   (improved forces if not selfconsistent)
 use gradient corrections 
 use of overlap-Matrix (Vanderbilt PP)
 Gauss-broadening in eV      SIGMA  =   0.05


--------------------------------------------------------------------------------------------------------


  energy-cutoff  :      400.00
  volume of cell :     7135.93
      direct lattice vectors                 reciprocal lattice vectors
    14.963595400  0.000000000  0.000000000     0.066828859  0.000000000  0.000000000
     0.000000000 25.917707400  0.000000000     0.000000000  0.038583660  0.000000000
     0.000000000  0.000000000 18.399999600     0.000000000  0.000000000  0.054347827

  length of vectors
    14.963595400 25.917707400 18.399999600     0.066828859  0.038583660  0.054347827



 k-points in units of 2pi/SCALE and weight: K-Points                                
   0.00000000  0.00000000  0.00000000       1.000

 k-points in reciprocal lattice and weights: K-Points                                
   0.00000000  0.00000000  0.00000000       1.000

 position of ions in fractional coordinates (direct lattice) 
   0.04056512  0.95043126  0.40760870
   0.02699886  0.85586271  0.40760870
   0.01349943  0.76125559  0.40760870
   0.00000000  0.66664847  0.40760870
   0.18919251  0.99098271  0.40760870
   0.13512796  0.94595559  0.40760870
   0.17569307  0.89641416  0.40760870
   0.12162853  0.85134847  0.40760870
   0.16219365  0.80180704  0.40760870
   0.10812910  0.75674135  0.40760870
   0.14862738  0.70719992  0.40760870
   0.09456283  0.66217279  0.40760870
   0.13512796  0.61263136  0.40760870
   0.08106341  0.56756564  0.40760870
   0.12162853  0.51802420  0.40760870
   0.06756398  0.47295851  0.40760870
   0.10812910  0.42341708  0.40760870
   0.05406455  0.37838996  0.40760870
   0.09456283  0.32880996  0.40760870
   0.04056512  0.28378282  0.40760870
   0.08106341  0.23424140  0.40760870
   0.02699886  0.18917568  0.40760870
   0.06756398  0.13963426  0.40760870
   0.01349943  0.09460713  0.40760870
   0.05406455  0.04502713  0.40760870
   0.00000000  0.00000000  0.40760870
   0.28375532  0.98646841  0.40760870
   0.32432046  0.93692704  0.40760870
   0.27025592  0.89189984  0.40760870
   0.31082102  0.84235849  0.40760870
   0.25675647  0.79729273  0.40760870
   0.29732158  0.74775129  0.40760870
   0.24325705  0.70268560  0.40760870
   0.28375532  0.65314417  0.40760870
   0.22975762  0.60811705  0.40760870
   0.27025592  0.55857565  0.40760870
   0.21619135  0.51350993  0.40760870
   0.25675647  0.46396849  0.40760870
   0.20269193  0.41890281  0.40760870
   0.24325705  0.36936137  0.40760870
   0.18919251  0.32433425  0.40760870
   0.22975762  0.27479283  0.40760870
   0.17569307  0.22972711  0.40760870
   0.21619135  0.18018569  0.40760870
   0.16219365  0.13511998  0.40760870
   0.20269193  0.08557855  0.40760870
   0.14862738  0.04055143  0.40760870
   0.47294784  0.97747842  0.40760870
   0.41895012  0.93245129  0.40760870
   0.45944840  0.88287130  0.40760870
   0.40538386  0.83784418  0.40760870
   0.44594897  0.78830274  0.40760870
   0.39188441  0.74323705  0.40760870
   0.43244956  0.69369562  0.40760870
   0.37838501  0.64862993  0.40760870
   0.41895012  0.59908850  0.40760870
   0.36488557  0.55406134  0.40760870
   0.40538386  0.50451994  0.40760870
   0.35131931  0.45945422  0.40760870
   0.39188441  0.40991278  0.40760870
   0.33781987  0.36484710  0.40760870
   0.37838501  0.31530566  0.40760870
   0.32432046  0.27027854  0.40760870
   0.36488557  0.22073712  0.40760870
   0.31082102  0.17567140  0.40760870
   0.35131931  0.12612999  0.40760870
   0.29732158  0.08106427  0.40760870
   0.33781987  0.03152285  0.40760870
   0.56757750  0.97296411  0.40760870
   0.60807578  0.92342275  0.40760870
   0.55407809  0.87839563  0.40760870
   0.59457638  0.82881563  0.40760870
   0.54051183  0.78378843  0.40760870
   0.58107690  0.73424707  0.40760870
   0.52701239  0.68918131  0.40760870
   0.56757750  0.63963987  0.40760870
   0.51351295  0.59461279  0.40760870
   0.55407809  0.54503279  0.40760870
   0.50001351  0.50000563  0.40760870
   0.54051183  0.45046423  0.40760870
   0.48651410  0.40539851  0.40760870
   0.52701239  0.35585708  0.40760870
   0.47294784  0.31082995  0.40760870
   0.51351295  0.26124996  0.40760870
   0.45944840  0.21622283  0.40760870
   0.50001351  0.16668142  0.40760870
   0.44594897  0.12161570  0.40760870
   0.48651410  0.07207428  0.40760870
   0.43244956  0.02700856  0.40760870
   0.75677002  0.96397413  0.40760870
   0.70270547  0.91890844  0.40760870
   0.74327054  0.86936700  0.40760870
   0.68920600  0.82433988  0.40760870
   0.72970429  0.77475988  0.40760870
   0.67570660  0.72973276  0.40760870
   0.71620488  0.68019132  0.40760870
   0.66214033  0.63512564  0.40760870
   0.70270547  0.58558421  0.40760870
   0.64864093  0.54055708  0.40760870
   0.68920600  0.49097708  0.40760870
   0.63514145  0.44594992  0.40760870
   0.67570660  0.39640853  0.40760870
   0.62164205  0.35134280  0.40760870
   0.66214033  0.30180139  0.40760870
   0.60807578  0.25677426  0.40760870
   0.64864093  0.20719425  0.40760870
   0.59457638  0.16216713  0.40760870
   0.63514145  0.11262570  0.40760870
   0.58107690  0.06755999  0.40760870
   0.62164205  0.01801857  0.40760870
   0.85133285  0.95945989  0.40760870
   0.89189793  0.90991845  0.40760870
   0.83783338  0.86485276  0.40760870
   0.87839852  0.81531133  0.40760870
   0.82433398  0.77028421  0.40760870
   0.86483226  0.72070421  0.40760870
   0.81083457  0.67567702  0.40760870
   0.85133285  0.62613566  0.40760870
   0.79726831  0.58106993  0.40760870
   0.83783338  0.53152849  0.40760870
   0.78376883  0.48650137  0.40760870
   0.82433398  0.43692138  0.40760870
   0.77026942  0.39189422  0.40760870
   0.81083457  0.34235282  0.40760870
   0.75677002  0.29728709  0.40760870
   0.79726831  0.24774568  0.40760870
   0.74327054  0.20271856  0.40760870
   0.78376883  0.15313855  0.40760870
   0.72970429  0.10811142  0.40760870
   0.77026942  0.05857000  0.40760870
   0.71620488  0.01350428  0.40760870
   0.98646076  0.90540414  0.40760870
   0.97296135  0.81079702  0.40760870
   0.95946195  0.71622847  0.40760870
   0.94596247  0.62162134  0.40760870
   0.98646076  0.57207991  0.40760870
   0.93246308  0.52701422  0.40760870
   0.97296135  0.47747279  0.40760870
   0.91889680  0.43244566  0.40760870
   0.95946195  0.38286567  0.40760870
   0.90539740  0.33783851  0.40760870
   0.94596247  0.28829711  0.40760870
   0.89189793  0.24323139  0.40760870
   0.93246308  0.19368997  0.40760870
   0.87839852  0.14866284  0.40760870
   0.91889680  0.09908284  0.40760870
   0.86483226  0.05405571  0.40760870
   0.90539740  0.00451429  0.40760870
   0.00000000  0.33332424  0.59239130
   0.01349943  0.23875569  0.59239130
   0.02699886  0.14414856  0.59239130
   0.04056512  0.04954142  0.59239130
   0.00000000  0.00000000  0.59239130
   0.05406455  0.95494558  0.59239130
   0.01349943  0.90540414  0.59239130
   0.06756398  0.86037702  0.59239130
   0.02699886  0.81079702  0.59239130
   0.08106341  0.76576990  0.59239130
   0.04056512  0.71622847  0.59239130
   0.09456283  0.67116278  0.59239130
   0.05406455  0.62162134  0.59239130
   0.10812910  0.57659422  0.59239130
   0.06756398  0.52701422  0.59239130
   0.12162853  0.48198706  0.59239130
   0.08106341  0.43244566  0.59239130
   0.13512796  0.38737994  0.59239130
   0.09456283  0.33783851  0.59239130
   0.14862738  0.29281140  0.59239130
   0.10812910  0.24323139  0.59239130
   0.16219365  0.19820426  0.59239130
   0.12162853  0.14866284  0.59239130
   0.17569307  0.10359713  0.59239130
   0.13512796  0.05405571  0.59239130
   0.18919251  0.00898999  0.59239130
   0.14862738  0.95945989  0.59239130
   0.20269193  0.91443276  0.59239130
   0.16219365  0.86485276  0.59239130
   0.21619135  0.81982557  0.59239130
   0.17569307  0.77028421  0.59239130
   0.22975762  0.72521845  0.59239130
   0.18919251  0.67567702  0.59239130
   0.24325705  0.63064989  0.59239130
   0.20269193  0.58106993  0.59239130
   0.25675647  0.53604277  0.59239130
   0.21619135  0.48650137  0.59239130
   0.27025592  0.44143565  0.59239130
   0.22975762  0.39189422  0.59239130
   0.28375532  0.34682853  0.59239130
   0.24325705  0.29728709  0.59239130
   0.29732158  0.25225997  0.59239130
   0.25675647  0.20271856  0.59239130
   0.31082102  0.15765283  0.59239130
   0.27025592  0.10811142  0.59239130
   0.32432046  0.06304570  0.59239130
   0.28375532  0.01350428  0.59239130
   0.33781987  0.96844987  0.59239130
   0.29732158  0.91890844  0.59239130
   0.35131931  0.87388131  0.59239130
   0.31082102  0.82433988  0.59239130
   0.36488557  0.77927419  0.59239130
   0.32432046  0.72973276  0.59239130
   0.37838501  0.68466707  0.59239130
   0.33781987  0.63512564  0.59239130
   0.39188441  0.59009848  0.59239130
   0.35131931  0.54055708  0.59239130
   0.40538386  0.49549136  0.59239130
   0.36488557  0.44594992  0.59239130
   0.41895012  0.40088424  0.59239130
   0.37838501  0.35134280  0.59239130
   0.43244956  0.30631568  0.59239130
   0.39188441  0.25677426  0.59239130
   0.44594897  0.21170854  0.59239130
   0.40538386  0.16216713  0.59239130
   0.45944840  0.11710141  0.59239130
   0.41895012  0.06755999  0.59239130
   0.47294784  0.02253286  0.59239130
   0.43244956  0.97296411  0.59239130
   0.48651410  0.92793698  0.59239130
   0.44594897  0.87839563  0.59239130
   0.50001351  0.83332986  0.59239130
   0.45944840  0.78378843  0.59239130
   0.51351295  0.73872274  0.59239130
   0.47294784  0.68918131  0.59239130
   0.52701239  0.64415419  0.59239130
   0.48651410  0.59461279  0.59239130
   0.54051183  0.54954706  0.59239130
   0.50001351  0.50000563  0.59239130
   0.55407809  0.45493995  0.59239130
   0.51351295  0.40539851  0.59239130
   0.56757750  0.36037139  0.59239130
   0.52701239  0.31082995  0.59239130
   0.58107690  0.26576425  0.59239130
   0.54051183  0.21622283  0.59239130
   0.59457638  0.17115711  0.59239130
   0.55407809  0.12161570  0.59239130
   0.60807578  0.07658856  0.59239130
   0.56757750  0.02700856  0.59239130
   0.62164205  0.98199273  0.59239130
   0.58107690  0.93245129  0.59239130
   0.63514145  0.88738561  0.59239130
   0.59457638  0.83784418  0.59239130
   0.64864093  0.79277849  0.59239130
   0.60807578  0.74323705  0.59239130
   0.66214033  0.69820993  0.59239130
   0.62164205  0.64862993  0.59239130
   0.67570660  0.60360277  0.59239130
   0.63514145  0.55406134  0.59239130
   0.68920600  0.50899565  0.59239130
   0.64864093  0.45945422  0.59239130
   0.70270547  0.41442710  0.59239130
   0.66214033  0.36484710  0.59239130
   0.71620488  0.31981994  0.59239130
   0.67570660  0.27027854  0.59239130
   0.72970429  0.22521282  0.59239130
   0.68920600  0.17567140  0.59239130
   0.74327054  0.13064427  0.59239130
   0.70270547  0.08106427  0.59239130
   0.75677002  0.03603714  0.59239130
   0.71620488  0.98646841  0.59239130
   0.77026942  0.94144128  0.59239130
   0.72970429  0.89189984  0.59239130
   0.78376883  0.84683416  0.59239130
   0.74327054  0.79729273  0.59239130
   0.79726831  0.75226560  0.59239130
   0.75677002  0.70268560  0.59239130
   0.81083457  0.65765848  0.59239130
   0.77026942  0.60811705  0.59239130
   0.82433398  0.56305136  0.59239130
   0.78376883  0.51350993  0.59239130
   0.83783338  0.46848280  0.59239130
   0.79726831  0.41890281  0.59239130
   0.85133285  0.37387565  0.59239130
   0.81083457  0.32433425  0.59239130
   0.86483226  0.27926852  0.59239130
   0.82433398  0.22972711  0.59239130
   0.87839852  0.18469999  0.59239130
   0.83783338  0.13511998  0.59239130
   0.89189793  0.09009285  0.59239130
   0.85133285  0.04055143  0.59239130
   0.90539740  0.99549702  0.59239130
   0.86483226  0.94595559  0.59239130
   0.91889680  0.90088990  0.59239130
   0.87839852  0.85134847  0.59239130
   0.93246308  0.80632135  0.59239130
   0.89189793  0.75674135  0.59239130
   0.94596247  0.71171415  0.59239130
   0.90539740  0.66217279  0.59239130
   0.95946195  0.61710707  0.59239130
   0.91889680  0.56756564  0.59239130
   0.97296135  0.52253851  0.59239130
   0.93246308  0.47295851  0.59239130
   0.98646076  0.42793135  0.59239130
   0.94596247  0.37838996  0.59239130
   0.95946195  0.28378282  0.59239130
   0.97296135  0.18917568  0.59239130
   0.98646076  0.09460713  0.59239130

 position of ions in cartesian coordinates  (Angst):
   0.60700000 24.63299940  7.50000000
   0.40400000 22.18199920  7.50000000
   0.20200000 19.72999960  7.50000000
   0.00000000 17.27799990  7.50000000
   2.83100010 25.68400000  7.50000000
   2.02200010 24.51700020  7.50000000
   2.62900000 23.23299980  7.50000000
   1.82000010 22.06500050  7.50000000
   2.42700010 20.78100020  7.50000000
   1.61800010 19.61300090  7.50000000
   2.22400000 18.32900050  7.50000000
   1.41500000 17.16200070  7.50000000
   2.02200010 15.87800040  7.50000000
   1.21300010 14.71000010  7.50000000
   1.82000010 13.42599970  7.50000000
   1.01100000 12.25800040  7.50000000
   1.61800010 10.97400000  7.50000000
   0.80900000  9.80700020  7.50000000
   1.41500000  8.52200030  7.50000000
   0.60700000  7.35500000  7.50000000
   1.21300010  6.07100010  7.50000000
   0.40400000  4.90300000  7.50000000
   1.01100000  3.61900000  7.50000000
   0.20200000  2.45199990  7.50000000
   0.80900000  1.16700010  7.50000000
   0.00000000  0.00000000  7.50000000
   4.24599980 25.56699950  7.50000000
   4.85300020 24.28300100  7.50000000
   4.04400020 23.11599920  7.50000000
   4.65100000 21.83200080  7.50000000
   3.84200000 20.66399960  7.50000000
   4.44899990 19.37999920  7.50000000
   3.64000010 18.21199990  7.50000000
   4.24599980 16.92799960  7.50000000
   3.43800000 15.76099970  7.50000000
   4.04400020 14.47700030  7.50000000
   3.23499990 13.30900000  7.50000000
   3.84200000 12.02499960  7.50000000
   3.03300000 10.85700040  7.50000000
   3.64000010  9.57300000  7.50000000
   2.83100010  8.40600010  7.50000000
   3.43800000  7.12200020  7.50000000
   2.62900000  5.95400000  7.50000000
   3.23499990  4.67000010  7.50000000
   2.42700010  3.50200010  7.50000000
   3.03300000  2.21799990  7.50000000
   2.22400000  1.05100000  7.50000000
   7.07700010 25.33399960  7.50000000
   6.26900010 24.16699980  7.50000000
   6.87500000 22.88200000  7.50000000
   6.06600000 21.71500020  7.50000000
   6.67299990 20.43099980  7.50000000
   5.86399980 19.26300050  7.50000000
   6.47100020 17.97900020  7.50000000
   5.66200020 16.81100080  7.50000000
   6.26900010 15.52700050  7.50000000
   5.46000010 14.35999970  7.50000000
   6.06600000 13.07600020  7.50000000
   5.25700000 11.90800000  7.50000000
   5.86399980 10.62399960  7.50000000
   5.05499980  9.45600040  7.50000000
   5.66200020  8.17199990  7.50000000
   4.85300020  7.00500010  7.50000000
   5.46000010  5.72100020  7.50000000
   4.65100000  4.55300000  7.50000000
   5.25700000  3.26900010  7.50000000
   4.44899990  2.10100010  7.50000000
   5.05499980  0.81700000  7.50000000
   8.49300010 25.21699910  7.50000000
   9.09900000 23.93300060  7.50000000
   8.29100040 22.76600080  7.50000000
   8.89700040 21.48100090  7.50000000
   8.08800030 20.31399920  7.50000000
   8.69499970 19.03000070  7.50000000
   7.88600020 17.86199960  7.50000000
   8.49300010 16.57799910  7.50000000
   7.68400000 15.41100030  7.50000000
   8.29100040 14.12600040  7.50000000
   7.48199990 12.95899960  7.50000000
   8.08800030 11.67500020  7.50000000
   7.28000020 10.50700000  7.50000000
   7.88600020  9.22299960  7.50000000
   7.07700010  8.05599980  7.50000000
   7.68400000  6.77099990  7.50000000
   6.87500000  5.60400010  7.50000000
   7.48199990  4.32000020  7.50000000
   6.67299990  3.15200000  7.50000000
   7.28000020  1.86800000  7.50000000
   6.47100020  0.70000000  7.50000000
  11.32400040 24.98399940  7.50000000
  10.51500040 23.81600000  7.50000000
  11.12199970 22.53199960  7.50000000
  10.31299970 21.36499980  7.50000000
  10.91899980 20.07999990  7.50000000
  10.11100010 18.91300020  7.50000000
  10.71700000 17.62899970  7.50000000
   9.90800000 16.46100050  7.50000000
  10.51500040 15.17700010  7.50000000
   9.70600040 14.01000020  7.50000000
  10.31299970 12.72500040  7.50000000
   9.50399970 11.55799960  7.50000000
  10.11100010 10.27400020  7.50000000
   9.30200010  9.10600000  7.50000000
   9.90800000  7.82200010  7.50000000
   9.09900000  6.65500020  7.50000000
   9.70600040  5.36999990  7.50000000
   8.89700040  4.20300010  7.50000000
   9.50399970  2.91900000  7.50000000
   8.69499970  1.75100010  7.50000000
   9.30200010  0.46700000  7.50000000
  12.73900030 24.86700060  7.50000000
  13.34599970 23.58300020  7.50000000
  12.53699970 22.41500090  7.50000000
  13.14400010 21.13100050  7.50000000
  12.33500010 19.96400080  7.50000000
  12.94100000 18.67900090  7.50000000
  12.13300040 17.51199920  7.50000000
  12.73900030 16.22800070  7.50000000
  11.93000040 15.06000040  7.50000000
  12.53699970 13.77600000  7.50000000
  11.72799970 12.60900020  7.50000000
  12.33500010 11.32400040  7.50000000
  11.52600000 10.15699960  7.50000000
  12.13300040  8.87300020  7.50000000
  11.32400040  7.70499990  7.50000000
  11.93000040  6.42100000  7.50000000
  11.12199970  5.25400020  7.50000000
  11.72799970  3.96900020  7.50000000
  10.91899980  2.80200010  7.50000000
  11.52600000  1.51800000  7.50000000
  10.71700000  0.35000000  7.50000000
  14.76099970 23.46599960  7.50000000
  14.55900000 21.01399990  7.50000000
  14.35700040 18.56299980  7.50000000
  14.15499970 16.11100010  7.50000000
  14.76099970 14.82699970  7.50000000
  13.95300020 13.65900040  7.50000000
  14.55900000 12.37500000  7.50000000
  13.75000000 11.20800020  7.50000000
  14.35700040  9.92300040  7.50000000
  13.54800040  8.75599960  7.50000000
  14.15499970  7.47200010  7.50000000
  13.34599970  6.30399990  7.50000000
  13.95300020  5.02000000  7.50000000
  13.14400010  3.85300000  7.50000000
  13.75000000  2.56800010  7.50000000
  12.94100000  1.40100000  7.50000000
  13.54800040  0.11700000  7.50000000
   0.00000000  8.63900000 10.89999960
   0.20200000  6.18800020 10.89999960
   0.40400000  3.73600010 10.89999960
   0.60700000  1.28400010 10.89999960
   0.00000000  0.00000000 10.89999960
   0.80900000 24.75000000 10.89999960
   0.20200000 23.46599960 10.89999960
   1.01100000 22.29899980 10.89999960
   0.40400000 21.01399990 10.89999960
   1.21300010 19.84700020 10.89999960
   0.60700000 18.56299980 10.89999960
   1.41500000 17.39500050 10.89999960
   0.80900000 16.11100010 10.89999960
   1.61800010 14.94400020 10.89999960
   1.01100000 13.65900040 10.89999960
   1.82000010 12.49199970 10.89999960
   1.21300010 11.20800020 10.89999960
   2.02200010 10.04000000 10.89999960
   1.41500000  8.75599960 10.89999960
   2.22400000  7.58900030 10.89999960
   1.61800010  6.30399990 10.89999960
   2.42700010  5.13700010 10.89999960
   1.82000010  3.85300000 10.89999960
   2.62900000  2.68500000 10.89999960
   2.02200010  1.40100000 10.89999960
   2.83100010  0.23300000 10.89999960
   2.22400000 24.86700060 10.89999960
   3.03300000 23.70000080 10.89999960
   2.42700010 22.41500090 10.89999960
   3.23499990 21.24799920 10.89999960
   2.62900000 19.96400080 10.89999960
   3.43800000 18.79599960 10.89999960
   2.83100010 17.51199920 10.89999960
   3.64000010 16.34499930 10.89999960
   3.03300000 15.06000040 10.89999960
   3.84200000 13.89299960 10.89999960
   3.23499990 12.60900020 10.89999960
   4.04400020 11.44100000 10.89999960
   3.43800000 10.15699960 10.89999960
   4.24599980  8.98900040 10.89999960
   3.64000010  7.70499990 10.89999960
   4.44899990  6.53800010 10.89999960
   3.84200000  5.25400020 10.89999960
   4.65100000  4.08600000 10.89999960
   4.04400020  2.80200010 10.89999960
   4.85300020  1.63400000 10.89999960
   4.24599980  0.35000000 10.89999960
   5.05499980 25.10000040 10.89999960
   4.44899990 23.81600000 10.89999960
   5.25700000 22.64900020 10.89999960
   4.65100000 21.36499980 10.89999960
   5.46000010 20.19700050 10.89999960
   4.85300020 18.91300020 10.89999960
   5.66200020 17.74500090 10.89999960
   5.05499980 16.46100050 10.89999960
   5.86399980 15.29399970 10.89999960
   5.25700000 14.01000020 10.89999960
   6.06600000 12.84200000 10.89999960
   5.46000010 11.55799960 10.89999960
   6.26900010 10.39000040 10.89999960
   5.66200020  9.10600000 10.89999960
   6.47100020  7.93900020 10.89999960
   5.86399980  6.65500020 10.89999960
   6.67299990  5.48700000 10.89999960
   6.06600000  4.20300010 10.89999960
   6.87500000  3.03500010 10.89999960
   6.26900010  1.75100010 10.89999960
   7.07700010  0.58400000 10.89999960
   6.47100020 25.21699910 10.89999960
   7.28000020 24.04999920 10.89999960
   6.67299990 22.76600080 10.89999960
   7.48199990 21.59799960 10.89999960
   6.87500000 20.31399920 10.89999960
   7.68400000 19.14599990 10.89999960
   7.07700010 17.86199960 10.89999960
   7.88600020 16.69499970 10.89999960
   7.28000020 15.41100030 10.89999960
   8.08800030 14.24300000 10.89999960
   7.48199990 12.95899960 10.89999960
   8.29100040 11.79100040 10.89999960
   7.68400000 10.50700000 10.89999960
   8.49300010  9.34000020 10.89999960
   7.88600020  8.05599980 10.89999960
   8.69499970  6.88800000 10.89999960
   8.08800030  5.60400010 10.89999960
   8.89700040  4.43599990 10.89999960
   8.29100040  3.15200000 10.89999960
   9.09900000  1.98500000 10.89999960
   8.49300010  0.70000000 10.89999960
   9.30200010 25.45100020 10.89999960
   8.69499970 24.16699980 10.89999960
   9.50399970 22.99900060 10.89999960
   8.89700040 21.71500020 10.89999960
   9.70600040 20.54700090 10.89999960
   9.09900000 19.26300050 10.89999960
   9.90800000 18.09600070 10.89999960
   9.30200010 16.81100080 10.89999960
  10.11100010 15.64400010 10.89999960
   9.50399970 14.35999970 10.89999960
  10.31299970 13.19200040 10.89999960
   9.70600040 11.90800000 10.89999960
  10.51500040 10.74100020 10.89999960
   9.90800000  9.45600040 10.89999960
  10.71700000  8.28899960 10.89999960
  10.11100010  7.00500010 10.89999960
  10.91899980  5.83699990 10.89999960
  10.31299970  4.55300000 10.89999960
  11.12199970  3.38599990 10.89999960
  10.51500040  2.10100010 10.89999960
  11.32400040  0.93400000 10.89999960
  10.71700000 25.56699950 10.89999960
  11.52600000 24.39999960 10.89999960
  10.91899980 23.11599920 10.89999960
  11.72799970 21.94800000 10.89999960
  11.12199970 20.66399960 10.89999960
  11.93000040 19.49699980 10.89999960
  11.32400040 18.21199990 10.89999960
  12.13300040 17.04500010 10.89999960
  11.52600000 15.76099970 10.89999960
  12.33500010 14.59300040 10.89999960
  11.72799970 13.30900000 10.89999960
  12.53699970 12.14200020 10.89999960
  11.93000040 10.85700040 10.89999960
  12.73900030  9.68999960 10.89999960
  12.13300040  8.40600010 10.89999960
  12.94100000  7.23799990 10.89999960
  12.33500010  5.95400000 10.89999960
  13.14400010  4.78700020 10.89999960
  12.53699970  3.50200010 10.89999960
  13.34599970  2.33500010 10.89999960
  12.73900030  1.05100000 10.89999960
  13.54800040 25.80100060 10.89999960
  12.94100000 24.51700020 10.89999960
  13.75000000 23.34900090 10.89999960
  13.14400010 22.06500050 10.89999960
  13.95300020 20.89800080 10.89999960
  13.34599970 19.61300090 10.89999960
  14.15499970 18.44599920 10.89999960
  13.54800040 17.16200070 10.89999960
  14.35700040 15.99400040 10.89999960
  13.75000000 14.71000010 10.89999960
  14.55900000 13.54300020 10.89999960
  13.95300020 12.25800040 10.89999960
  14.76099970 11.09099960 10.89999960
  14.15499970  9.80700020 10.89999960
  14.35700040  7.35500000 10.89999960
  14.55900000  4.90300000 10.89999960
  14.76099970  2.45199990 10.89999960



--------------------------------------------------------------------------------------------------------


 k-point  1 :   0.0000 0.0000 0.0000  plane waves:  129665

 maximum and minimum number of plane-waves per node :     21614    21607

 maximum number of plane-waves:    129665
 maximum index in each direction: 
   IXMAX=   24   IYMAX=   42   IZMAX=   30
   IXMIN=  -24   IYMIN=  -42   IZMIN=  -30


 real space projection operators:
  total allocation   :      21377.25 KBytes
  max/ min on nodes  :       3743.38       3471.50


 parallel 3D FFT for wavefunctions:
    minimum data exchange during FFTs selected (reduces bandwidth)
 parallel 3D FFT for charge:
    minimum data exchange during FFTs selected (reduces bandwidth)


 total amount of memory used by VASP MPI-rank0   114726. kBytes
=======================================================================

   base      :      30000. kBytes
   nonlr-proj:      10683. kBytes
   fftplans  :      12595. kBytes
   grid      :      17620. kBytes
   one-center:        153. kBytes
   wavefun   :      43675. kBytes

     INWAV:  cpu time    0.0000: real time    0.0000
 Broyden mixing: mesh for mixing (old mesh)
   NGX = 49   NGY = 85   NGZ = 61
  (NGX  =160   NGY  =256   NGZ  =180)
  gives a total of 254065 points

 initial charge density was supplied:
 charge density of overlapping atoms calculated
 number of electron    1184.0000000 magnetization 
 keeping initial charge density in first step


--------------------------------------------------------------------------------------------------------


 Maximum index for non-local projection operator          290
 Maximum index for augmentation-charges          151 (set IRDMAX)


--------------------------------------------------------------------------------------------------------


 First call to EWALD:  gamma=   0.092
 Maximum number of real-space cells 3x 2x 3
 Maximum number of reciprocal cells 2x 4x 3

    FEWALD:  cpu time    0.0894: real time    0.0895


--------------------------------------- Iteration      1(   1)  ---------------------------------------


    POTLOK:  cpu time    2.1765: real time    2.1849
    SETDIJ:  cpu time    0.0350: real time    0.0350
     EDDAV:  cpu time   69.1494: real time   69.4348
       DOS:  cpu time    0.0055: real time    0.0056
    --------------------------------------------
      LOOP:  cpu time   71.3664: real time   71.6603

 eigenvalue-minimisations  :  1656
 total energy-change (2. order) : 0.8661196E+04  (-0.4561010E+05)
 number of electron    1184.0000000 magnetization 
 augmentation part     1184.0000000 magnetization 

 Free energy of the ion-electron system (eV)
  ---------------------------------------------------
  alpha Z        PSCENC =      1008.61001319
  Ewald energy   TEWEN  =    195067.24907867
  -Hartree energ DENC   =   -229702.27602110
  -exchange      EXHF   =         0.00000000
  -V(xc)+E(xc)   XCENC  =      3915.56745971
  PAW double counting   =     32122.52572849   -32291.06984787
  entropy T*S    EENTRO =        -0.08489489
  eigenvalues    EBANDS =     -5008.98329442
  atomic energy  EATOM  =     43549.65826599
  Solvation  Ediel_sol  =         0.00000000
  ---------------------------------------------------
  free energy    TOTEN  =      8661.19648777 eV

  energy without entropy =     8661.28138266  energy(sigma->0) =     8661.23893521


--------------------------------------------------------------------------------------------------------




--------------------------------------- Iteration      1(   2)  ---------------------------------------


     EDDAV:  cpu time   80.3671: real time   80.6235
       DOS:  cpu time    0.0028: real time    0.0028
    --------------------------------------------
      LOOP:  cpu time   80.3700: real time   80.6263

 eigenvalue-minimisations  :  2028
 total energy-change (2. order) :-0.1025179E+05  (-0.9909378E+04)
 number of electron    1184.0000000 magnetization 
 augmentation part     1184.0000000 magnetization 

 Free energy of the ion-electron system (eV)
  ---------------------------------------------------
  alpha Z        PSCENC =      1008.61001319
  Ewald energy   TEWEN  =    195067.24907867
  -Hartree energ DENC   =   -229702.27602110
  -exchange      EXHF   =         0.00000000
  -V(xc)+E(xc)   XCENC  =      3915.56745971
  PAW double counting   =     32122.52572849   -32291.06984787
  entropy T*S    EENTRO =        -0.00000000
  eigenvalues    EBANDS =    -15260.86046343
  atomic energy  EATOM  =     43549.65826599
  Solvation  Ediel_sol  =         0.00000000
  ---------------------------------------------------
  free energy    TOTEN  =     -1590.59578636 eV

  energy without entropy =    -1590.59578636  energy(sigma->0) =    -1590.59578636


--------------------------------------------------------------------------------------------------------




--------------------------------------- Iteration      1(   3)  ---------------------------------------


     EDDAV:  cpu time   71.9670: real time   72.0342
       DOS:  cpu time    0.0024: real time    0.0024
    --------------------------------------------
      LOOP:  cpu time   71.9694: real time   72.0366

 eigenvalue-minimisations  :  1740
 total energy-change (2. order) :-0.1283428E+04  (-0.1274780E+04)
 number of electron    1184.0000000 magnetization 
 augmentation part     1184.0000000 magnetization 

 Free energy of the ion-electron system (eV)
  ---------------------------------------------------
  alpha Z        PSCENC =      1008.61001319
  Ewald energy   TEWEN  =    195067.24907867
  -Hartree energ DENC   =   -229702.27602110
  -exchange      EXHF   =         0.00000000
  -V(xc)+E(xc)   XCENC  =      3915.56745971
  PAW double counting   =     32122.52572849   -32291.06984787
  entropy T*S    EENTRO =        -0.00000000
  eigenvalues    EBANDS =    -16544.28817947
  atomic energy  EATOM  =     43549.65826599
  Solvation  Ediel_sol  =         0.00000000
  ---------------------------------------------------
  free energy    TOTEN  =     -2874.02350240 eV

  energy without entropy =    -2874.02350240  energy(sigma->0) =    -2874.02350240


--------------------------------------------------------------------------------------------------------




--------------------------------------- Iteration      1(   4)  ---------------------------------------


     EDDAV:  cpu time   75.3201: real time   75.3933
       DOS:  cpu time    0.0028: real time    0.0028
    --------------------------------------------
      LOOP:  cpu time   75.3229: real time   75.3961

 eigenvalue-minimisations  :  1848
 total energy-change (2. order) :-0.4100860E+02  (-0.4082677E+02)
 number of electron    1184.0000000 magnetization 
 augmentation part     1184.0000000 magnetization 

 Free energy of the ion-electron system (eV)
  ---------------------------------------------------
  alpha Z        PSCENC =      1008.61001319
  Ewald energy   TEWEN  =    195067.24907867
  -Hartree energ DENC   =   -229702.27602110
  -exchange      EXHF   =         0.00000000
  -V(xc)+E(xc)   XCENC  =      3915.56745971
  PAW double counting   =     32122.52572849   -32291.06984787
  entropy T*S    EENTRO =        -0.00000000
  eigenvalues    EBANDS =    -16585.29678155
  atomic energy  EATOM  =     43549.65826599
  Solvation  Ediel_sol  =         0.00000000
  ---------------------------------------------------
  free energy    TOTEN  =     -2915.03210448 eV

  energy without entropy =    -2915.03210448  energy(sigma->0) =    -2915.03210448


--------------------------------------------------------------------------------------------------------




--------------------------------------- Iteration      1(   5)  ---------------------------------------


     EDDAV:  cpu time   79.6198: real time   79.8855
       DOS:  cpu time    0.0030: real time    0.0030
    CHARGE:  cpu time    1.4717: real time    1.4780
    MIXING:  cpu time    0.0187: real time    0.0187
    --------------------------------------------
      LOOP:  cpu time   81.1132: real time   81.3853

 eigenvalue-minimisations  :  2004
 total energy-change (2. order) :-0.1452179E+01  (-0.1449940E+01)
 number of electron    1184.0000586 magnetization 
 augmentation part       31.3593580 magnetization 

 Broyden mixing:
  rms(total) = 0.77759E+01    rms(broyden)= 0.77735E+01
  rms(prec ) = 0.80878E+01
  weight for this iteration     100.00

 Free energy of the ion-electron system (eV)
  ---------------------------------------------------
  alpha Z        PSCENC =      1008.61001319
  Ewald energy   TEWEN  =    195067.24907867
  -Hartree energ DENC   =   -229702.27602110
  -exchange      EXHF   =         0.00000000
  -V(xc)+E(xc)   XCENC  =      3915.56745971
  PAW double counting   =     32122.52572849   -32291.06984787
  entropy T*S    EENTRO =        -0.00000000
  eigenvalues    EBANDS =    -16586.74896021
  atomic energy  EATOM  =     43549.65826599
  Solvation  Ediel_sol  =         0.00000000
  ---------------------------------------------------
  free energy    TOTEN  =     -2916.48428314 eV

  energy without entropy =    -2916.48428314  energy(sigma->0) =    -2916.48428314


--------------------------------------------------------------------------------------------------------




--------------------------------------- Iteration      1(   6)  ---------------------------------------


    POTLOK:  cpu time    2.1340: real time    2.1408
    SETDIJ:  cpu time    0.0372: real time    0.0373
    EDDIAG:  cpu time   16.7070: real time   16.7402
  RMM-DIIS:  cpu time   10.9948: real time   11.0083
    ORTHCH:  cpu time    9.0275: real time    9.0365
       DOS:  cpu time    0.0126: real time    0.0126
    CHARGE:  cpu time    1.4776: real time    1.4837
    MIXING:  cpu time    0.0113: real time    0.0113
    --------------------------------------------
      LOOP:  cpu time   40.4019: real time   40.4706

 eigenvalue-minimisations  :  1488
 total energy-change (2. order) : 0.1356639E+03  (-0.1326035E+02)
 number of electron    1184.0000508 magnetization 
 augmentation part       30.1313931 magnetization 

 Broyden mixing:
  rms(total) = 0.45973E+01    rms(broyden)= 0.45971E+01
  rms(prec ) = 0.47527E+01
  weight for this iteration     100.00

 eigenvalues of (default mixing * dielectric matrix)
  average eigenvalue GAMMA=   2.2533
  2.2533

 Free energy of the ion-electron system (eV)
  ---------------------------------------------------
  alpha Z        PSCENC =      1008.61001319
  Ewald energy   TEWEN  =    195067.24907867
  -Hartree energ DENC   =   -231252.79222063
  -exchange      EXHF   =         0.00000000
  -V(xc)+E(xc)   XCENC  =      3988.93692767
  PAW double counting   =     60026.95931198   -60216.68885692
  entropy T*S    EENTRO =        -0.00000000
  eigenvalues    EBANDS =    -14952.75291322
  atomic energy  EATOM  =     43549.65826599
  Solvation  Ediel_sol  =         0.00000000
  ---------------------------------------------------
  free energy    TOTEN  =     -2780.82039327 eV

  energy without entropy =    -2780.82039327  energy(sigma->0) =    -2780.82039327


--------------------------------------------------------------------------------------------------------




--------------------------------------- Iteration      1(   7)  ---------------------------------------


    POTLOK:  cpu time    2.1293: real time    2.1307
    SETDIJ:  cpu time    0.0392: real time    0.0393
    EDDIAG:  cpu time   16.7955: real time   16.8135
  RMM-DIIS:  cpu time   10.9857: real time   11.0027
    ORTHCH:  cpu time    8.9943: real time    9.0030
       DOS:  cpu time    0.0146: real time    0.0146
    CHARGE:  cpu time    1.5016: real time    1.5034
    MIXING:  cpu time    0.0135: real time    0.0135
    --------------------------------------------
      LOOP:  cpu time   40.4736: real time   40.5207

 eigenvalue-minimisations  :  1488
 total energy-change (2. order) : 0.4781951E+02  (-0.2080732E+02)
 number of electron    1184.0000414 magnetization 
 augmentation part       28.5217127 magnetization 

 Broyden mixing:
  rms(total) = 0.11263E+01    rms(broyden)= 0.11251E+01
  rms(prec ) = 0.11503E+01
  weight for this iteration     100.00

 eigenvalues of (default mixing * dielectric matrix)
  average eigenvalue GAMMA=   2.2972
  2.2972  2.2972

 Free energy of the ion-electron system (eV)
  ---------------------------------------------------
  alpha Z        PSCENC =      1008.61001319
  Ewald energy   TEWEN  =    195067.24907867
  -Hartree energ DENC   =   -233400.89924421
  -exchange      EXHF   =         0.00000000
  -V(xc)+E(xc)   XCENC  =      4087.86147787
  PAW double counting   =    115781.02295670  -115990.66697562
  entropy T*S    EENTRO =        -0.00000000
  eigenvalues    EBANDS =    -12835.83645589
  atomic energy  EATOM  =     43549.65826599
  Solvation  Ediel_sol  =         0.00000000
  ---------------------------------------------------
  free energy    TOTEN  =     -2733.00088329 eV

  energy without entropy =    -2733.00088329  energy(sigma->0) =    -2733.00088329


--------------------------------------------------------------------------------------------------------




--------------------------------------- Iteration      1(   8)  ---------------------------------------


    POTLOK:  cpu time    2.1634: real time    2.1679
    SETDIJ:  cpu time    0.0314: real time    0.0314
    EDDIAG:  cpu time   16.7555: real time   16.7727
  RMM-DIIS:  cpu time   11.0912: real time   11.1106
    ORTHCH:  cpu time    9.0346: real time    9.0435
       DOS:  cpu time    0.0026: real time    0.0026
    CHARGE:  cpu time    1.4593: real time    1.4607
    MIXING:  cpu time    0.0196: real time    0.0196
    --------------------------------------------
      LOOP:  cpu time   40.5577: real time   40.6090

 eigenvalue-minimisations  :  1508
 total energy-change (2. order) : 0.7725212E+00  (-0.4337582E+00)
 number of electron    1184.0000411 magnetization 
 augmentation part       28.4343038 magnetization 

 Broyden mixing:
  rms(total) = 0.10021E+00    rms(broyden)= 0.99727E-01
  rms(prec ) = 0.14737E+00
  weight for this iteration     100.00

 eigenvalues of (default mixing * dielectric matrix)
  average eigenvalue GAMMA=   2.0046
  1.2852  2.4519  2.2766

 Free energy of the ion-electron system (eV)
  ---------------------------------------------------
  alpha Z        PSCENC =      1008.61001319
  Ewald energy   TEWEN  =    195067.24907867
  -Hartree energ DENC   =   -233593.76924748
  -exchange      EXHF   =         0.00000000
  -V(xc)+E(xc)   XCENC  =      4081.91173234
  PAW double counting   =    127301.72574876  -127502.62333287
  entropy T*S    EENTRO =        -0.00000000
  eigenvalues    EBANDS =    -12644.99062073
  atomic energy  EATOM  =     43549.65826599
  Solvation  Ediel_sol  =         0.00000000
  ---------------------------------------------------
  free energy    TOTEN  =     -2732.22836213 eV

  energy without entropy =    -2732.22836213  energy(sigma->0) =    -2732.22836213


--------------------------------------------------------------------------------------------------------




--------------------------------------- Iteration      1(   9)  ---------------------------------------


    POTLOK:  cpu time    2.1459: real time    2.1497
    SETDIJ:  cpu time    0.0328: real time    0.0328
    EDDIAG:  cpu time   16.7723: real time   16.7915
  RMM-DIIS:  cpu time   11.5806: real time   11.5944
    ORTHCH:  cpu time    9.0403: real time    9.0528
       DOS:  cpu time    0.0094: real time    0.0094
    CHARGE:  cpu time    1.4982: real time    1.4996
    MIXING:  cpu time    0.0157: real time    0.0157
    --------------------------------------------
      LOOP:  cpu time   41.0951: real time   41.1458

 eigenvalue-minimisations  :  1567
 total energy-change (2. order) : 0.1027061E+00  (-0.3455625E-01)
 number of electron    1184.0000409 magnetization 
 augmentation part       28.3895001 magnetization 

 Broyden mixing:
  rms(total) = 0.63494E-01    rms(broyden)= 0.63455E-01
  rms(prec ) = 0.10333E+00
  weight for this iteration     100.00

 eigenvalues of (default mixing * dielectric matrix)
  average eigenvalue GAMMA=   2.0636
  0.9949  2.1172  2.5711  2.5711

 Free energy of the ion-electron system (eV)
  ---------------------------------------------------
  alpha Z        PSCENC =      1008.61001319
  Ewald energy   TEWEN  =    195067.24907867
  -Hartree energ DENC   =   -233732.58875782
  -exchange      EXHF   =         0.00000000
  -V(xc)+E(xc)   XCENC  =      4083.67286895
  PAW double counting   =    128605.54080473  -128806.27214219
  entropy T*S    EENTRO =        -0.00000000
  eigenvalues    EBANDS =    -12507.99578755
  atomic energy  EATOM  =     43549.65826599
  Solvation  Ediel_sol  =         0.00000000
  ---------------------------------------------------
  free energy    TOTEN  =     -2732.12565603 eV

  energy without entropy =    -2732.12565603  energy(sigma->0) =    -2732.12565603


--------------------------------------------------------------------------------------------------------




--------------------------------------- Iteration      1(  10)  ---------------------------------------


    POTLOK:  cpu time    2.1878: real time    2.1921
    SETDIJ:  cpu time    0.0347: real time    0.0348
    EDDIAG:  cpu time   16.7400: real time   16.7555
  RMM-DIIS:  cpu time   10.9119: real time   10.9334
    ORTHCH:  cpu time    9.0604: real time    9.0698
       DOS:  cpu time    0.0048: real time    0.0048
    CHARGE:  cpu time    1.4580: real time    1.4617
    MIXING:  cpu time    0.0153: real time    0.0153
    --------------------------------------------
      LOOP:  cpu time   40.4129: real time   40.4674

 eigenvalue-minimisations  :  1488
 total energy-change (2. order) : 0.8698164E-01  (-0.1522966E-01)
 number of electron    1184.0000407 magnetization 
 augmentation part       28.3607954 magnetization 

 Broyden mixing:
  rms(total) = 0.37350E-01    rms(broyden)= 0.37330E-01
  rms(prec ) = 0.58128E-01
  weight for this iteration     100.00

 eigenvalues of (default mixing * dielectric matrix)
  average eigenvalue GAMMA=   2.0444
  3.1890  0.9990  2.3006  1.8666  1.8666

 Free energy of the ion-electron system (eV)
  ---------------------------------------------------
  alpha Z        PSCENC =      1008.61001319
  Ewald energy   TEWEN  =    195067.24907867
  -Hartree energ DENC   =   -233963.66401912
  -exchange      EXHF   =         0.00000000
  -V(xc)+E(xc)   XCENC  =      4085.48029028
  PAW double counting   =    127803.02350488  -128003.98565937
  entropy T*S    EENTRO =        -0.00000000
  eigenvalues    EBANDS =    -12278.41014892
  atomic energy  EATOM  =     43549.65826599
  Solvation  Ediel_sol  =         0.00000000
  ---------------------------------------------------
  free energy    TOTEN  =     -2732.03867439 eV

  energy without entropy =    -2732.03867439  energy(sigma->0) =    -2732.03867439


--------------------------------------------------------------------------------------------------------




--------------------------------------- Iteration      1(  11)  ---------------------------------------


    POTLOK:  cpu time    2.1887: real time    2.1902
    SETDIJ:  cpu time    0.0320: real time    0.0320
    EDDIAG:  cpu time   16.8119: real time   16.8330
  RMM-DIIS:  cpu time   11.1497: real time   11.1660
    ORTHCH:  cpu time    8.9815: real time    8.9879
       DOS:  cpu time    0.0032: real time    0.0032
    CHARGE:  cpu time    1.4884: real time    1.4920
    MIXING:  cpu time    0.0195: real time    0.0195
    --------------------------------------------
      LOOP:  cpu time   40.6749: real time   40.7239

 eigenvalue-minimisations  :  1519
 total energy-change (2. order) : 0.8812210E-02  (-0.5082297E-02)
 number of electron    1184.0000406 magnetization 
 augmentation part       28.3520141 magnetization 

 Broyden mixing:
  rms(total) = 0.20623E-01    rms(broyden)= 0.20615E-01
  rms(prec ) = 0.33972E-01
  weight for this iteration     100.00

 eigenvalues of (default mixing * dielectric matrix)
  average eigenvalue GAMMA=   2.2489
  4.9381  2.5370  2.2644  1.6397  1.0570  1.0570

 Free energy of the ion-electron system (eV)
  ---------------------------------------------------
  alpha Z        PSCENC =      1008.61001319
  Ewald energy   TEWEN  =    195067.24907867
  -Hartree energ DENC   =   -234059.14574457
  -exchange      EXHF   =         0.00000000
  -V(xc)+E(xc)   XCENC  =      4085.84447223
  PAW double counting   =    128249.64280028  -128450.30420503
  entropy T*S    EENTRO =        -0.00000000
  eigenvalues    EBANDS =    -12183.58454293
  atomic energy  EATOM  =     43549.65826599
  Solvation  Ediel_sol  =         0.00000000
  ---------------------------------------------------
  free energy    TOTEN  =     -2732.02986218 eV

  energy without entropy =    -2732.02986218  energy(sigma->0) =    -2732.02986218


--------------------------------------------------------------------------------------------------------




--------------------------------------- Iteration      1(  12)  ---------------------------------------


    POTLOK:  cpu time    2.1791: real time    2.1812
    SETDIJ:  cpu time    0.0360: real time    0.0361
    EDDIAG:  cpu time   16.7583: real time   16.7775
  RMM-DIIS:  cpu time   10.9925: real time   11.0077
    ORTHCH:  cpu time    9.0545: real time    9.0643
       DOS:  cpu time    0.0032: real time    0.0033
    CHARGE:  cpu time    1.4501: real time    1.4538
    MIXING:  cpu time    0.0183: real time    0.0183
    --------------------------------------------
      LOOP:  cpu time   40.4920: real time   40.5421

 eigenvalue-minimisations  :  1488
 total energy-change (2. order) :-0.1407823E-01  (-0.3137146E-02)
 number of electron    1184.0000405 magnetization 
 augmentation part       28.3428778 magnetization 

 Broyden mixing:
  rms(total) = 0.13225E-01    rms(broyden)= 0.13219E-01
  rms(prec ) = 0.18992E-01
  weight for this iteration     100.00

 eigenvalues of (default mixing * dielectric matrix)
  average eigenvalue GAMMA=   2.3386
  5.4143  2.4953  2.4953  2.3181  1.6584  0.9946  0.9946

 Free energy of the ion-electron system (eV)
  ---------------------------------------------------
  alpha Z        PSCENC =      1008.61001319
  Ewald energy   TEWEN  =    195067.24907867
  -Hartree energ DENC   =   -234161.82414822
  -exchange      EXHF   =         0.00000000
  -V(xc)+E(xc)   XCENC  =      4086.43585763
  PAW double counting   =    127952.61027395  -128153.37444131
  entropy T*S    EENTRO =        -0.00000000
  eigenvalues    EBANDS =    -12081.40884031
  atomic energy  EATOM  =     43549.65826599
  Solvation  Ediel_sol  =         0.00000000
  ---------------------------------------------------
  free energy    TOTEN  =     -2732.04394041 eV

  energy without entropy =    -2732.04394041  energy(sigma->0) =    -2732.04394041


--------------------------------------------------------------------------------------------------------




--------------------------------------- Iteration      1(  13)  ---------------------------------------


    POTLOK:  cpu time    2.1455: real time    2.1470
    SETDIJ:  cpu time    0.0317: real time    0.0317
    EDDIAG:  cpu time   16.7915: real time   16.8089
  RMM-DIIS:  cpu time   11.0488: real time   11.0852
    ORTHCH:  cpu time    9.0755: real time    9.1034
       DOS:  cpu time    0.0031: real time    0.0031
    CHARGE:  cpu time    1.4610: real time    1.4649
    MIXING:  cpu time    0.0181: real time    0.0181
    --------------------------------------------
      LOOP:  cpu time   40.5752: real time   40.6624

 eigenvalue-minimisations  :  1494
 total energy-change (2. order) :-0.2154827E-01  (-0.4260688E-03)
 number of electron    1184.0000405 magnetization 
 augmentation part       28.3430302 magnetization 

 Broyden mixing:
  rms(total) = 0.11022E-01    rms(broyden)= 0.11021E-01
  rms(prec ) = 0.13360E-01
  weight for this iteration     100.00

 eigenvalues of (default mixing * dielectric matrix)
  average eigenvalue GAMMA=   2.3291
  6.0785  3.2165  2.4655  2.2559  1.6025  1.0664  1.0664  0.8808

 Free energy of the ion-electron system (eV)
  ---------------------------------------------------
  alpha Z        PSCENC =      1008.61001319
  Ewald energy   TEWEN  =    195067.24907867
  -Hartree energ DENC   =   -234202.49333731
  -exchange      EXHF   =         0.00000000
  -V(xc)+E(xc)   XCENC  =      4086.26844526
  PAW double counting   =    128110.94540525  -128311.52719100
  entropy T*S    EENTRO =        -0.00000000
  eigenvalues    EBANDS =    -12040.77616873
  atomic energy  EATOM  =     43549.65826599
  Solvation  Ediel_sol  =         0.00000000
  ---------------------------------------------------
  free energy    TOTEN  =     -2732.06548868 eV

  energy without entropy =    -2732.06548868  energy(sigma->0) =    -2732.06548868


--------------------------------------------------------------------------------------------------------




--------------------------------------- Iteration      1(  14)  ---------------------------------------


    POTLOK:  cpu time    2.1695: real time    2.1771
    SETDIJ:  cpu time    0.0334: real time    0.0335
    EDDIAG:  cpu time   16.7527: real time   16.8062
  RMM-DIIS:  cpu time   10.9675: real time   11.0066
[...]
      8.89497     21.72767     10.89478         0.009990      0.021396      0.005511
      9.70512     20.56204     10.89479        -0.008768     -0.019686      0.005524
      9.09689     19.27439     10.89483         0.014853      0.020978      0.009684
      9.90717     18.10900     10.89485        -0.012874     -0.009700      0.012229
      9.29938     16.82109     10.89492        -0.000548      0.030080      0.019758
     10.10978     15.65587     10.89496        -0.021636     -0.006322      0.023627
      9.50153     14.36776     10.89499         0.001157      0.035398      0.028194
     10.31172     13.20265     10.89499        -0.009450     -0.006984      0.026775
      9.70375     11.91431     10.89498         0.011651      0.032599      0.026195
     10.51381     10.74937     10.89493        -0.001730     -0.012909      0.020691
      9.90590      9.46101     10.89489         0.024700      0.027226      0.016735
     10.71610      8.29611     10.89483        -0.006505     -0.022821      0.009846
     10.10829      7.00777     10.89478         0.007733      0.018613      0.006068
     10.91803      5.84254     10.89479        -0.013910     -0.022045      0.005368
     10.31013      4.55440     10.89479         0.009612      0.010285      0.007290
     11.12055      3.38923     10.89484        -0.028242     -0.029753      0.012338
     10.51222      2.10115     10.89487         0.009321      0.008471      0.015068
     11.32260      0.93584     10.89493        -0.015891     -0.025887      0.021974
     10.71450     25.58253     10.89491         0.010472      0.017083      0.017590
     11.52471     24.41734     10.89496        -0.002414     -0.036367      0.022761
     10.91657     23.12945     10.89488         0.016663      0.011519      0.014745
     11.72696     21.96404     10.89490        -0.004366     -0.027324      0.017540
     11.11886     20.67627     10.89484         0.011442      0.017884      0.011710
     11.92910     19.51077     10.89484        -0.006961     -0.016002      0.011460
     11.32105     18.22306     10.89482         0.008175      0.027589      0.010791
     12.13150     17.05768     10.89486        -0.016243     -0.009049      0.011701
     11.52343     15.76985     10.89485         0.000272      0.031955      0.013562
     12.33347     14.60438     10.89492        -0.009801     -0.009711      0.017687
     11.72529     13.31641     10.89488         0.009509      0.033955      0.017592
     12.53580     12.15116     10.89491        -0.014070     -0.013002      0.017701
     11.92741     10.86311     10.89487         0.025420      0.026556      0.014608
     12.73785      9.69788     10.89481        -0.009302     -0.014424      0.009063
     12.13004      8.40985     10.89480         0.015724      0.019302      0.007443
     12.93969      7.24444     10.89477        -0.005261     -0.018325      0.004522
     12.33198      5.95635     10.89481         0.010137      0.018067      0.010075
     13.14205      4.79126     10.89485        -0.026564     -0.022042      0.013255
     12.53426      3.50311     10.89493         0.003282      0.013610      0.020548
     13.34423      2.33802     10.89498        -0.014040     -0.024710      0.026662
     12.73621      1.04988     10.89500         0.006708      0.007696      0.028593
     13.54643     25.81960     10.89506        -0.002290     -0.030298      0.034313
     12.93826     24.53127     10.89499         0.017690      0.014116      0.027562
     13.74845     23.36616     10.89501         0.003616     -0.022134      0.028643
     13.14077     22.07799     10.89490         0.011827      0.018554      0.017568
     13.95099     20.91276     10.89490        -0.011336     -0.020293      0.015949
     13.34293     19.62488     10.89478         0.015404      0.020127      0.006238
     14.15324     18.45953     10.89480        -0.014232     -0.019217      0.005804
     13.54512     17.17175     10.89474         0.007816      0.024642      0.002065
     14.35522     16.00612     10.89480        -0.013812     -0.018471      0.006464
     13.74683     14.71835     10.89482         0.014935      0.023049      0.009315
     14.55753     13.55295     10.89480        -0.012913     -0.019342      0.008456
     13.94924     12.26509     10.89483         0.008541      0.021258      0.011228
     14.75969     11.09959     10.89479        -0.006620     -0.021258      0.005930
     14.15154      9.81180     10.89480         0.010945      0.020195      0.006661
     14.35365      7.35842     10.89481         0.013287      0.017500      0.008067
     14.55588      4.90517     10.89492         0.008856      0.020690      0.018699
     14.75800      2.45179     10.89503         0.008249      0.020716      0.031281
 -----------------------------------------------------------------------------------
    total drift:                                0.030786     -0.000800      0.002443


--------------------------------------------------------------------------------------------------------



  FREE ENERGIE OF THE ION-ELECTRON SYSTEM (eV)
  ---------------------------------------------------
  free  energy   TOTEN  =     -2757.70175067 eV

  energy  without entropy=    -2757.70175067  energy(sigma->0) =    -2757.70175067

 d Force = 0.4362301E-03[ 0.372E-03, 0.500E-03]  d Energy =-0.1125658E-03 0.549E-03
 d Force =-0.5107852E+00[-0.511E+00,-0.511E+00]  d Ewald  =-0.9497542E+01 0.899E+01


--------------------------------------------------------------------------------------------------------


    POTLOK:  cpu time    2.2205: real time    2.2256


--------------------------------------------------------------------------------------------------------




--------------------------------------------------------------------------------------------------------


  
 reached required accuracy - stopping structural energy minimisation
 writing wavefunctions
     LOOP+:  cpu time  383.2122: real time  391.0281
    4ORBIT:  cpu time    0.0000: real time    0.0000



 total charge     

# of ion       s       p       d       tot
------------------------------------------
    1        0.868   1.797   0.000   2.665
    2        0.868   1.797   0.000   2.665
    3        0.868   1.797   0.000   2.665
    4        0.868   1.798   0.000   2.665
    5        0.868   1.797   0.000   2.665
    6        0.868   1.797   0.000   2.665
    7        0.868   1.797   0.000   2.665
    8        0.868   1.797   0.000   2.664
    9        0.868   1.797   0.000   2.664
   10        0.868   1.796   0.000   2.664
   11        0.868   1.797   0.000   2.665
   12        0.868   1.796   0.000   2.664
   13        0.868   1.797   0.000   2.665
   14        0.868   1.796   0.000   2.664
   15        0.868   1.797   0.000   2.665
   16        0.868   1.797   0.000   2.665
   17        0.868   1.796   0.000   2.664
   18        0.868   1.797   0.000   2.665
   19        0.868   1.796   0.000   2.664
   20        0.868   1.797   0.000   2.665
   21        0.868   1.796   0.000   2.664
   22        0.868   1.797   0.000   2.665
   23        0.868   1.797   0.000   2.665
   24        0.868   1.797   0.000   2.665
   25        0.868   1.797   0.000   2.665
   26        0.868   1.797   0.000   2.665
   27        0.868   1.797   0.000   2.665
   28        0.868   1.797   0.000   2.665
   29        0.868   1.797   0.000   2.665
   30        0.868   1.796   0.000   2.664
   31        0.868   1.797   0.000   2.665
   32        0.868   1.797   0.000   2.664
   33        0.868   1.797   0.000   2.664
   34        0.868   1.797   0.000   2.665
   35        0.868   1.797   0.000   2.665
   36        0.868   1.797   0.000   2.665
   37        0.868   1.796   0.000   2.664
   38        0.868   1.797   0.000   2.665
   39        0.868   1.797   0.000   2.665
   40        0.868   1.797   0.000   2.665
   41        0.868   1.797   0.000   2.665
   42        0.868   1.797   0.000   2.665
   43        0.868   1.797   0.000   2.664
   44        0.868   1.797   0.000   2.664
   45        0.868   1.797   0.000   2.665
   46        0.868   1.797   0.000   2.665
   47        0.868   1.797   0.000   2.665
   48        0.868   1.797   0.000   2.665
   49        0.868   1.797   0.000   2.665
   50        0.868   1.796   0.000   2.664
   51        0.868   1.797   0.000   2.665
   52        0.868   1.796   0.000   2.664
   53        0.868   1.797   0.000   2.665
   54        0.868   1.796   0.000   2.664
   55        0.868   1.797   0.000   2.665
   56        0.868   1.797   0.000   2.665
   57        0.868   1.797   0.000   2.665
   58        0.868   1.797   0.000   2.665
   59        0.868   1.797   0.000   2.664
   60        0.868   1.797   0.000   2.665
   61        0.868   1.797   0.000   2.665
   62        0.868   1.797   0.000   2.665
   63        0.868   1.797   0.000   2.665
   64        0.868   1.797   0.000   2.665
   65        0.868   1.796   0.000   2.664
   66        0.868   1.797   0.000   2.665
   67        0.868   1.797   0.000   2.664
   68        0.868   1.797   0.000   2.665
   69        0.868   1.797   0.000   2.665
   70        0.868   1.796   0.000   2.664
   71        0.868   1.797   0.000   2.665
   72        0.868   1.796   0.000   2.664
   73        0.868   1.797   0.000   2.665
   74        0.868   1.796   0.000   2.664
   75        0.868   1.797   0.000   2.665
   76        0.868   1.797   0.000   2.665
   77        0.868   1.797   0.000   2.665
   78        0.868   1.797   0.000   2.665
   79        0.868   1.797   0.000   2.665
   80        0.868   1.797   0.000   2.665
   81        0.868   1.797   0.000   2.665
   82        0.868   1.797   0.000   2.665
   83        0.868   1.797   0.000   2.665
   84        0.868   1.797   0.000   2.665
   85        0.868   1.796   0.000   2.664
   86        0.868   1.797   0.000   2.665
   87        0.868   1.796   0.000   2.664
   88        0.868   1.797   0.000   2.665
   89        0.868   1.797   0.000   2.664
   90        0.868   1.797   0.000   2.665
   91        0.868   1.797   0.000   2.665
   92        0.868   1.797   0.000   2.664
   93        0.868   1.797   0.000   2.665
   94        0.868   1.797   0.000   2.665
   95        0.868   1.797   0.000   2.665
   96        0.868   1.797   0.000   2.665
   97        0.868   1.797   0.000   2.665
   98        0.868   1.797   0.000   2.665
   99        0.868   1.797   0.000   2.665
  100        0.868   1.797   0.000   2.665
  101        0.868   1.797   0.000   2.665
  102        0.868   1.797   0.000   2.664
  103        0.868   1.797   0.000   2.665
  104        0.868   1.797   0.000   2.665
  105        0.868   1.796   0.000   2.664
  106        0.868   1.797   0.000   2.665
  107        0.868   1.796   0.000   2.664
  108        0.868   1.797   0.000   2.665
  109        0.868   1.796   0.000   2.664
  110        0.868   1.797   0.000   2.665
  111        0.868   1.797   0.000   2.665
  112        0.868   1.797   0.000   2.665
  113        0.868   1.797   0.000   2.665
  114        0.868   1.797   0.000   2.665
  115        0.868   1.797   0.000   2.664
  116        0.868   1.797   0.000   2.665
  117        0.868   1.796   0.000   2.664
  118        0.868   1.797   0.000   2.665
  119        0.868   1.797   0.000   2.664
  120        0.868   1.797   0.000   2.665
  121        0.868   1.797   0.000   2.665
  122        0.868   1.797   0.000   2.665
  123        0.868   1.797   0.000   2.665
  124        0.868   1.796   0.000   2.664
  125        0.868   1.797   0.000   2.665
  126        0.868   1.797   0.000   2.664
  127        0.868   1.797   0.000   2.665
  128        0.868   1.797   0.000   2.665
  129        0.868   1.796   0.000   2.664
  130        0.868   1.797   0.000   2.665
  131        0.868   1.797   0.000   2.665
  132        0.868   1.797   0.000   2.665
  133        0.868   1.797   0.000   2.665
  134        0.868   1.796   0.000   2.664
  135        0.868   1.796   0.000   2.664
  136        0.868   1.797   0.000   2.665
  137        0.868   1.797   0.000   2.664
  138        0.868   1.796   0.000   2.664
  139        0.868   1.797   0.000   2.665
  140        0.868   1.796   0.000   2.664
  141        0.868   1.797   0.000   2.665
  142        0.868   1.796   0.000   2.664
  143        0.868   1.797   0.000   2.665
  144        0.868   1.797   0.000   2.665
  145        0.868   1.797   0.000   2.665
  146        0.868   1.797   0.000   2.665
  147        0.868   1.797   0.000   2.665
  148        0.868   1.797   0.000   2.665
  149        0.868   1.797   0.000   2.665
  150        0.868   1.797   0.000   2.665
  151        0.868   1.797   0.000   2.665
  152        0.868   1.797   0.000   2.665
  153        0.868   1.797   0.000   2.665
  154        0.868   1.797   0.000   2.665
  155        0.868   1.797   0.000   2.665
  156        0.868   1.797   0.000   2.665
  157        0.868   1.797   0.000   2.665
  158        0.868   1.796   0.000   2.664
  159        0.868   1.797   0.000   2.665
  160        0.868   1.796   0.000   2.664
  161        0.868   1.797   0.000   2.665
  162        0.868   1.797   0.000   2.665
  163        0.868   1.797   0.000   2.665
  164        0.868   1.797   0.000   2.665
  165        0.868   1.796   0.000   2.664
  166        0.868   1.797   0.000   2.665
  167        0.868   1.796   0.000   2.664
  168        0.868   1.797   0.000   2.665
  169        0.868   1.796   0.000   2.664
  170        0.868   1.797   0.000   2.665
  171        0.868   1.797   0.000   2.665
  172        0.868   1.797   0.000   2.664
  173        0.868   1.797   0.000   2.665
  174        0.868   1.797   0.000   2.665
  175        0.868   1.797   0.000   2.665
  176        0.868   1.797   0.000   2.665
  177        0.868   1.797   0.000   2.665
  178        0.868   1.797   0.000   2.665
  179        0.868   1.797   0.000   2.665
  180        0.868   1.796   0.000   2.664
  181        0.868   1.797   0.000   2.665
  182        0.868   1.797   0.000   2.665
  183        0.868   1.797   0.000   2.665
  184        0.868   1.797   0.000   2.665
  185        0.868   1.797   0.000   2.665
  186        0.868   1.797   0.000   2.665
  187        0.868   1.796   0.000   2.664
  188        0.868   1.797   0.000   2.665
  189        0.868   1.797   0.000   2.665
  190        0.868   1.797   0.000   2.665
  191        0.868   1.797   0.000   2.665
  192        0.868   1.796   0.000   2.664
  193        0.868   1.797   0.000   2.665
  194        0.868   1.796   0.000   2.664
  195        0.868   1.797   0.000   2.665
  196        0.868   1.797   0.000   2.665
  197        0.868   1.797   0.000   2.665
  198        0.868   1.797   0.000   2.665
  199        0.868   1.796   0.000   2.664
  200        0.868   1.797   0.000   2.665
  201        0.868   1.797   0.000   2.664
  202        0.868   1.797   0.000   2.665
  203        0.868   1.797   0.000   2.665
  204        0.868   1.797   0.000   2.665
  205        0.868   1.797   0.000   2.665
  206        0.868   1.797   0.000   2.665
  207        0.868   1.797   0.000   2.664
  208        0.868   1.797   0.000   2.665
  209        0.868   1.797   0.000   2.665
  210        0.868   1.797   0.000   2.665
  211        0.868   1.797   0.000   2.665
  212        0.868   1.796   0.000   2.664
  213        0.868   1.797   0.000   2.665
  214        0.868   1.796   0.000   2.664
  215        0.868   1.797   0.000   2.665
  216        0.868   1.797   0.000   2.665
  217        0.868   1.797   0.000   2.665
  218        0.868   1.797   0.000   2.665
  219        0.868   1.796   0.000   2.664
  220        0.868   1.797   0.000   2.665
  221        0.868   1.796   0.000   2.664
  222        0.868   1.797   0.000   2.665
  223        0.868   1.797   0.000   2.665
  224        0.868   1.797   0.000   2.665
  225        0.868   1.797   0.000   2.665
  226        0.868   1.797   0.000   2.665
  227        0.868   1.797   0.000   2.665
  228        0.868   1.797   0.000   2.665
  229        0.868   1.797   0.000   2.665
  230        0.868   1.797   0.000   2.665
  231        0.868   1.797   0.000   2.665
  232        0.868   1.796   0.000   2.664
  233        0.868   1.797   0.000   2.665
  234        0.868   1.796   0.000   2.664
  235        0.868   1.797   0.000   2.665
  236        0.868   1.796   0.000   2.664
  237        0.868   1.797   0.000   2.665
  238        0.868   1.797   0.000   2.665
  239        0.868   1.796   0.000   2.665
  240        0.868   1.797   0.000   2.665
  241        0.868   1.796   0.000   2.664
  242        0.868   1.797   0.000   2.665
  243        0.868   1.796   0.000   2.664
  244        0.868   1.797   0.000   2.665
  245        0.868   1.797   0.000   2.665
  246        0.868   1.797   0.000   2.664
  247        0.868   1.797   0.000   2.665
  248        0.868   1.797   0.000   2.665
  249        0.868   1.797   0.000   2.665
  250        0.868   1.797   0.000   2.665
  251        0.868   1.797   0.000   2.665
  252        0.868   1.797   0.000   2.665
  253        0.868   1.797   0.000   2.665
  254        0.868   1.797   0.000   2.665
  255        0.868   1.797   0.000   2.665
  256        0.868   1.797   0.000   2.664
  257        0.868   1.797   0.000   2.665
  258        0.868   1.797   0.000   2.665
  259        0.868   1.797   0.000   2.665
  260        0.868   1.797   0.000   2.665
  261        0.868   1.796   0.000   2.664
  262        0.868   1.797   0.000   2.665
  263        0.868   1.797   0.000   2.664
  264        0.868   1.797   0.000   2.664
  265        0.868   1.797   0.000   2.665
  266        0.868   1.796   0.000   2.664
  267        0.868   1.797   0.000   2.665
  268        0.868   1.797   0.000   2.665
  269        0.868   1.797   0.000   2.665
  270        0.868   1.797   0.000   2.665
  271        0.868   1.797   0.000   2.664
  272        0.868   1.797   0.000   2.665
  273        0.868   1.797   0.000   2.664
  274        0.868   1.797   0.000   2.665
  275        0.868   1.797   0.000   2.664
  276        0.868   1.797   0.000   2.665
  277        0.868   1.797   0.000   2.665
  278        0.868   1.797   0.000   2.665
  279        0.868   1.797   0.000   2.665
  280        0.868   1.797   0.000   2.665
  281        0.868   1.797   0.000   2.665
  282        0.868   1.797   0.000   2.665
  283        0.868   1.797   0.000   2.665
  284        0.868   1.797   0.000   2.665
  285        0.868   1.797   0.000   2.665
  286        0.868   1.796   0.000   2.664
  287        0.868   1.797   0.000   2.665
  288        0.868   1.796   0.000   2.664
  289        0.868   1.797   0.000   2.665
  290        0.868   1.797   0.000   2.664
  291        0.868   1.797   0.000   2.664
  292        0.868   1.797   0.000   2.665
  293        0.868   1.796   0.000   2.664
  294        0.868   1.796   0.000   2.664
  295        0.868   1.797   0.000   2.665
  296        0.868   1.797   0.000   2.665
--------------------------------------------------
tot        256.884 531.863   0.000 788.747


 total amount of memory used by VASP MPI-rank0   114726. kBytes
=======================================================================

   base      :      30000. kBytes
   nonlr-proj:      10683. kBytes
   fftplans  :      12595. kBytes
   grid      :      17620. kBytes
   one-center:        153. kBytes
   wavefun   :      43675. kBytes

  
  
 General timing and accounting informations for this job:
 ========================================================
  
                  Total CPU time used (sec):     3680.270
                            User time (sec):     2285.194
                          System time (sec):     1395.076
                         Elapsed time (sec):     3700.459
  
                   Maximum memory used (kb):      190760.
                   Average memory used (kb):           0.
  
                          Minor page faults:     11902867
                          Major page faults:            7
                 Voluntary context switches:        11830
