ITEM: TIMESTEP
92
ITEM: NUMBER OF ATOMS
20888
ITEM: BOX BOUNDS pp pp pp
0.0000000000000000e+00 1.2567601100000000e+02
0.0000000000000000e+00 2.1767723599999999e+02
0.0000000000000000e+00 1.8399999600000001e+01
ITEM: ATOMS id type x y z c_csym c_2[1] c_2[2] c_2[3] c_2[4] c_2[5] c_2[6] c_3 
1 1 4.35632e-06 -1.94354e-06 7.34032 6.04793 -6221.04 -6136.44 -63.831 -0.44887 -0.138888 -0.0904424 -7.41134 
2 1 2.15005 1.19391 7.34118 6.04625 -8166.53 -4233.25 -27.2957 -807.693 1947.02 -3588.39 -7.41137 
3 1 3.56972 1.17038 7.34231 6.04362 -7106.48 -5167.96 -127.167 4925.4 1477.74 -5329.61 -7.41139 
4 1 6.40889 1.12377 7.34605 6.04158 -9855.39 -2260.09 242.422 3906.13 2672.9 -10045.6 -7.41154 
5 1 7.82856 1.10127 7.34855 6.03965 -8723.66 -3200.36 -383.231 17427.5 -171.232 -10667.4 -7.41156 
60 1 0.0410686 2.45898 7.34118 6.04512 -7917.64 -4334.15 -83.3021 -1352.01 3728.37 -85.4868 -7.41136 
61 1 1.46075 2.43526 7.34147 6.04508 -5956.95 -6410.53 -53.7829 219.775 3964.87 -2146.14 -7.41138 
62 1 2.19087 3.65303 7.34286 6.04341 -12180 -133.482 -36.6379 -3381.84 5352.98 -3891.35 -7.41142 
63 1 3.61053 3.62952 7.34394 6.04193 -9122.03 -3059.47 -202.024 2407.39 5582.56 -4829.9 -7.41144 
64 1 4.29986 2.38817 7.34368 6.04451 -12114.5 -66.6337 186.847 -350.264 3919.5 -7256.68 -7.41146 
65 1 5.71952 2.36506 7.34553 6.04105 -9960.36 -2062.64 -425.646 9549.04 2765.39 -7783.37 -7.41147 
66 1 6.44926 3.58312 7.34757 6.04282 -17855.6 5797.93 716.018 1440.61 5807.29 -10789.6 -7.41162 
67 1 7.8689 3.56062 7.34999 6.03801 -14548 2883.01 -1098.95 14928.8 3689.41 -9553.98 -7.41156 
68 1 8.55833 2.31935 7.35047 6.03957 -15371.5 3373.21 900.836 7872.75 4897.6 -13207.5 -7.41172 
178 1 0.0817083 4.918 7.34367 6.04233 -9659.29 -2532.56 -254.641 -5091.09 6865.16 -152.849 -7.41143 
179 1 1.50139 4.8943 7.34395 6.04342 -5782.18 -6445.42 128.465 -3578.87 8127.26 -1998.3 -7.41146 
180 1 2.23109 6.11231 7.34604 6.04088 -15898.1 3797.57 -277.85 -8250.63 8085.09 -4104.87 -7.4115 
181 1 3.65074 6.08883 7.34706 6.03954 -11049.9 -1078.7 -29.424 -2498.69 9655.23 -4250.19 -7.41155 
182 1 4.34025 4.84755 7.34605 6.04173 -18038.4 5913.48 265.185 -3992.12 6899.15 -7703.02 -7.41154 
183 1 5.7599 4.82446 7.34781 6.03853 -13913.6 2054.77 -662.352 5693.87 6794.53 -6888.71 -7.41152 
184 1 6.48906 6.04284 7.35048 6.03961 -25468.4 13544.6 946.038 -3480.48 8292.11 -11324.7 -7.41172 
185 1 7.90867 6.02035 7.35275 6.0344 -20236.6 8714.68 -1559.18 9840.58 7580.14 -8290.59 -7.41161 
186 1 8.59811 4.77904 7.35255 6.03965 -24883.9 12915.5 1666.42 4255.33 7539.65 -14031.9 -7.41184 
296 1 0.121553 7.37706 7.34756 6.03917 -11258.2 -619.04 -734.255 -11049.8 9259.12 -210.829 -7.41151 
297 1 1.54124 7.35341 7.34782 6.04172 -5735.47 -6380.77 624.326 -9470.32 12130.7 -1822.79 -7.41162 
298 1 2.27034 8.57174 7.35046 6.03873 -19344 7553.31 -894.674 -15007.2 10051.2 -4247.19 -7.41158 
299 1 3.69 8.54832 7.3514 6.03701 -12987.6 1049.51 518.544 -9490.21 13489 -3605.49 -7.41172 
300 1 4.37987 7.30718 7.34976 6.0394 -23644.8 11790.9 30.373 -9916.95 9159.34 -8003.79 -7.41163 
301 1 5.79949 7.28413 7.35139 6.03512 -17758.9 6105.54 -577.621 -423.438 10708.5 -5885.18 -7.41164 
302 1 6.52792 8.50292 7.35451 6.03667 -32500.2 20852.5 782.041 -10303.4 10050.7 -11678.8 -7.41183 
303 1 7.94751 8.48045 7.35659 6.03055 -25590.4 14425 -1620.08 2540 11305.6 -6913.75 -7.41173 
304 1 8.63715 7.23918 7.3558 6.03568 -33871.9 22104 2095.85 -1799.11 9499.66 -14626.8 -7.41197 
6 1 10.6676 1.05655 7.3545 6.03457 -10887 -796.715 671.606 15200.7 4218.77 -14889.8 -7.41183 
7 1 12.0873 1.03575 7.3578 6.03582 -9657.55 -1465.57 -797.483 34805.3 -2654.22 -14386.3 -7.41181 
8 1 14.9264 0.993689 7.36476 6.02686 -11370.3 407.471 1148.84 31214.4 6396.92 -17879.7 -7.41218 
9 1 16.346 0.975006 7.36827 6.02921 -10104.2 -113.312 -1293.04 54836 -5610.47 -16553.2 -7.4121 
10 1 19.1852 0.936049 7.37528 6.01895 -11526.4 1207.49 1610.48 50253.7 8952.01 -19300.9 -7.41253 
69 1 9.97797 2.29763 7.35341 6.03776 -13017.6 1548.51 -1184.43 24769.6 493.589 -12088.4 -7.41165 
70 1 10.7072 3.51608 7.3558 6.03786 -22159.4 10338.7 2021.93 12744 6964.2 -16022 -7.41197 
71 1 12.1268 3.49527 7.35898 6.03542 -18499.9 7671.08 -2502.85 32299.6 859.649 -12871.1 -7.41173 
72 1 12.8166 2.25423 7.35996 6.03238 -17411.3 5966.49 1878.28 21823 6589.02 -17282.4 -7.41209 
73 1 14.2362 2.23445 7.36337 6.03423 -14855.3 4394.11 -2206.16 43746.3 -2458.69 -14846.3 -7.41188 
74 1 14.965 3.45335 7.36581 6.03053 -24638.1 13362.6 3629.4 28778.7 8761.71 -19296.9 -7.41239 
75 1 16.3846 3.43463 7.3692 6.03299 -20732.9 10982.6 -4183.98 52367.1 -2441.01 -14840.9 -7.41192 
76 1 17.0748 2.19394 7.37041 6.02462 -18451.3 7578.98 2952.34 39565.4 8816.15 -19542.2 -7.41248 
77 1 18.4945 2.17639 7.37383 6.02725 -15786.1 6323.45 -3319.58 64540.9 -5685.62 -16301.5 -7.41213 
78 1 19.2226 3.39578 7.37612 6.02276 -25967.5 15024.6 5316.17 47877.7 11009.2 -20864.9 -7.41282 
187 1 10.0177 4.75731 7.35535 6.03491 -20348.2 9230.65 -2250.34 20862.5 4248.5 -10660.7 -7.41164 
188 1 10.7463 5.97616 7.35826 6.03594 -32755.8 21051 3108.41 7770.37 9084.65 -16899.5 -7.41212 
189 1 12.1658 5.95531 7.36126 6.03119 -26929.3 16492.2 -3936.2 27065.3 4487.63 -11193.9 -7.4117 
190 1 12.8555 4.71414 7.36167 6.03519 -29494.6 17955.9 3658.84 18117.1 8839.99 -18446 -7.41227 
191 1 14.2751 4.69432 7.36494 6.03301 -24487.3 14497.6 -4372.7 39763.5 978.428 -13130 -7.41178 
192 1 15.003 5.91366 7.36782 6.03168 -37315.5 25944.4 5830.05 23685.6 10513.1 -20480.3 -7.41261 
193 1 16.4226 5.89487 7.37103 6.02964 -30993.2 21820.9 -6785.75 47069.7 916.891 -12990.8 -7.41181 
194 1 17.1126 4.65399 7.3718 6.02755 -32153 20922.6 5926.2 35816.5 10720.5 -20945.9 -7.41273 
195 1 18.5322 4.63637 7.37506 6.03185 -26836.5 17914.9 -6707.07 60579.1 -2539.67 -14489.9 -7.41193 
196 1 19.2596 5.85623 7.37774 6.02469 -39871.4 28499.2 8735.44 42683.9 12453.6 -22246.8 -7.41311 
305 1 10.0567 7.21744 7.35841 6.03032 -27373.5 16636.3 -2971.81 14501.7 7974.78 -9089.22 -7.41168 
306 1 10.7844 8.43676 7.36169 6.03145 -42580.3 31172.5 3767.39 717.283 10521.6 -17545 -7.41226 
307 1 12.204 8.41587 7.36447 6.02627 -34876.7 25064.4 -4931.86 19444.6 8049.41 -9391.77 -7.41173 
308 1 12.8937 7.17465 7.36437 6.03205 -40930 29506.4 5076.44 11901.4 10437.7 -19366.5 -7.41245 
309 1 14.3132 7.15476 7.36743 6.02752 -33772.1 24425.2 -6166.12 33223.4 4478.72 -11276.3 -7.41174 
310 1 15.0403 8.37462 7.37064 6.02814 -49173.6 38046.4 7569.68 16385.2 11604.5 -21438.2 -7.41281 
311 1 16.4598 8.35572 7.37363 6.02406 -40771.7 32421.7 -8912.9 39226.8 4296.73 -11029 -7.41174 
312 1 17.1498 7.11473 7.374 6.02798 -45235.9 33918.3 8517.61 29441.8 11981.2 -22140.9 -7.41298 
313 1 18.5693 7.09699 7.37706 6.02649 -37545 29318.9 -9699.67 53919.7 740.29 -12566.6 -7.4118 
314 1 19.2958 8.31737 7.38004 6.02442 -52952.5 41558.3 11672.8 35120.7 13241 -23442.6 -7.41338 
11 1 20.6049 0.919695 7.37863 6.02115 -10330.5 904.137 -1775.81 75971 -8695.62 -17502.6 -7.41238 
12 1 23.4441 0.884043 7.38506 6.01127 -11348.2 1761.95 2018.58 70953.6 11607.2 -19518.1 -7.41286 
13 1 24.8638 0.870076 7.38802 6.01303 -10098.6 1853.31 -2176.83 97051.8 -11629.6 -17507.5 -7.41263 
14 1 27.7032 0.837746 7.39356 6.00414 -11450.9 2236.66 2344.05 92137.6 14118.9 -18785.5 -7.41312 
79 1 20.6422 3.37937 7.37933 6.02564 -21945 12956 -5897.02 73592.3 -5817.38 -15750 -7.41212 
80 1 21.3331 2.13911 7.38058 6.01684 -18983.8 8407.89 3999.54 59649.4 11321.7 -20352.8 -7.41286 
81 1 22.7527 2.12393 7.38369 6.01922 -16261.7 7513.68 -4368.91 85818.7 -8860.54 -16758.8 -7.41235 
82 1 23.4804 3.34381 7.38573 6.01507 -26133.9 15588.9 6902.38 68622.4 13435.9 -21091 -7.41322 
83 1 24.8999 3.32977 7.38855 6.0176 -21932.3 14148.2 -7445.05 94769.6 -8986.58 -15826.2 -7.41229 
84 1 25.5915 2.08998 7.38971 6.00934 -18586.2 8918.44 4925.51 80764.9 13834.2 -20038.6 -7.41319 
85 1 27.0111 2.07717 7.39236 6.01118 -15982.6 8184.04 -5249.22 106595 -11748.9 -16409.7 -7.41255 
86 1 27.7383 3.29751 7.3941 6.00779 -25947.5 15509 8256.02 89877.7 15778.9 -20258.4 -7.41354 
197 1 20.6791 5.83971 7.38079 6.02865 -33231.1 24798.5 -9720.64 68264.7 -2699.77 -13892.8 -7.41191 
198 1 21.3697 4.59923 7.3817 6.01975 -33424.1 22147.5 8191.19 55880.9 12958.9 -21860.2 -7.41319 
199 1 22.7893 4.58396 7.38466 6.02433 -27876.1 19692.1 -8958.67 81927 -5958.28 -14984.2 -7.41208 
200 1 23.5161 5.8043 7.38706 6.01693 -40400 29158.2 11504.6 63376.9 14651.3 -22534.3 -7.41358 
201 1 24.9357 5.79013 7.38972 6.02211 -33439.8 26304.2 -12419.4 89474.3 -6076.27 -14067 -7.412 
202 1 25.627 4.55011 7.39062 6.01219 -33037.1 22431.5 10235.1 76988.2 15277 -21519.5 -7.41358 
203 1 27.0465 4.53718 7.39312 6.0163 -27528.3 20295.7 -10912 102790 -9051.6 -14760.9 -7.4122 
204 1 27.7729 5.75798 7.39521 6.00961 -39950.5 28601.9 13899.5 84589.5 16831.2 -21643.8 -7.41397 
315 1 20.7153 8.3007 7.38289 6.02358 -44017.7 36510.1 -13046.9 60288 501.33 -11944.2 -7.41176 
316 1 21.4058 7.06007 7.3835 6.02208 -47286.3 35625.5 11994.8 49347 13951.2 -23209.9 -7.41351 
317 1 22.8253 7.04464 7.38627 6.02553 -39170.5 31781.5 -13146.8 75238.8 -2877.82 -13123.4 -7.41185 
318 1 23.5512 8.26551 7.38895 6.01973 -53876.8 42457.3 15621.2 55614 15204.5 -23839.1 -7.41392 
319 1 24.9707 8.25115 7.39143 6.02267 -44472.5 38322.4 -16893.7 81446.2 -3046.47 -12234.5 -7.41176 
320 1 25.6618 7.01096 7.39211 6.01448 -46984 35714.6 15164.9 70373 16074.3 -22890 -7.41397 
321 1 27.0813 6.99786 7.39444 6.01994 -38786.5 32337.9 -16182 96078.6 -6153.47 -13045.4 -7.4119 
322 1 27.8068 8.21916 7.3968 6.01237 -53226.8 41400.5 19071 76663.5 17220.3 -22933.6 -7.41438 
15 1 29.1229 0.826111 7.39602 6.00521 -10455 2220.57 -2466.28 117236 -14219.4 -16731.6 -7.41284 
16 1 31.9625 0.796971 7.40056 5.99779 -11461.9 2498.63 2564.28 112723 16316 -17294.9 -7.41332 
17 1 33.3821 0.787509 7.4025 5.99808 -10417.6 2845.74 -2637.04 135639 -16359.6 -15318.7 -7.41301 
18 1 36.2219 0.761302 7.40605 5.99185 -11616.7 2914.34 2676.17 131681 18115.7 -15250.5 -7.41346 
19 1 37.6415 0.753783 7.40752 5.99186 -10733.8 3203.97 -2705.12 151721 -18033.7 -13439.7 -7.41313 
87 1 29.1578 3.2858 7.39642 6.00971 -21956.3 14125 -8707.3 115027 -11771.3 -15198.4 -7.41244 
88 1 29.8501 2.04648 7.39742 6.00248 -18743.5 8688.96 5662.49 101841 16128.9 -18828.8 -7.41345 
89 1 31.2697 2.03593 7.39956 6.00361 -16159.5 8296.5 -5910.24 126026 -14211.4 -15381.1 -7.41271 
90 1 31.9964 3.25671 7.40099 6.00107 -25170.3 14714.3 9297.27 110499 17847.9 -18599.3 -7.4138 
91 1 33.416 3.24717 7.4028 6.00237 -21126.1 13872.7 -9633.37 133498 -14078.2 -13981.3 -7.41256 
92 1 34.1089 2.00831 7.40362 5.99612 -18044 8579.66 6181.91 121731 18074.4 -16936.9 -7.41364 
93 1 35.5285 1.99983 7.40525 5.99677 -15610 8267.72 -6347.3 143352 -16192.7 -13815.3 -7.41284 
94 1 36.2548 3.221 7.40642 5.99467 -24092.4 13797.1 10012.2 129488 19548.7 -16354.2 -7.41397 
95 1 37.6743 3.2134 7.40774 5.99585 -20235.1 13018.8 -10239.4 149618 -15895.2 -12319.9 -7.41265 
96 1 38.3679 1.97498 7.40838 5.99037 -17607 8146.56 6491.7 139634 19622 -14591.9 -7.41377 
205 1 29.1924 5.74612 7.39737 6.01481 -33119 25924.1 -14668.3 109783 -9045.09 -13606.9 -7.41209 
206 1 29.8844 4.50658 7.39818 6.00516 -32630.9 21383.6 11908.1 98065.1 17430.7 -20188.5 -7.41391 
207 1 31.3039 4.49591 7.40016 6.00859 -27093.9 19742.7 -12447.2 122294 -11692.5 -13916.8 -7.4123 
208 1 32.0299 5.71712 7.40194 6.00287 -38381.2 26805.1 15781.2 105194 18786.5 -19847.8 -7.41428 
209 1 33.4494 5.70741 7.40359 6.00779 -31487 24782.5 -16369.9 128291 -11519.2 -12600.8 -7.41215 
210 1 34.1421 4.46835 7.40427 5.99889 -30922.7 20061.4 13147.3 117966 19273.1 -18121.4 -7.41415 
211 1 35.5616 4.45974 7.40575 6.0015 -25541.6 18650.4 -13538 139649 -13831.5 -12567.6 -7.41238 
212 1 36.2872 5.68131 7.40725 5.99705 -36062 24548.4 17119.8 124146 20409.3 -17425.6 -7.4145 
213 1 37.7068 5.67353 7.40843 6.00096 -29330 22750.7 -17536.3 144416 -13486.1 -11169.7 -7.4122 
214 1 38.4001 4.43494 7.40896 5.99341 -29062.9 18200.1 13966.9 135852 20745.2 -15579.8 -7.41431 
323 1 29.2263 8.20707 7.39879 6.01807 -43807.5 37669.1 -20145.1 101721 -6181.62 -11956.2 -7.41178 
324 1 29.9181 6.96737 7.39945 6.00739 -46005.4 33943.8 17793.5 91362.7 18094.6 -21475.6 -7.41436 
325 1 31.3376 6.95649 7.40126 6.01285 -37726.2 31193.5 -18612.5 115599 -8964.78 -12400.7 -7.41194 
326 1 32.0627 8.17818 7.40332 6.00558 -50891.5 38715.1 21818.7 97136.8 19070.6 -21035.5 -7.41474 
327 1 33.4822 8.16823 7.40481 6.01128 -41364.6 35682.6 -22650.8 120223 -8816.76 -11173.1 -7.41179 
328 1 34.1748 6.92903 7.40537 6.00107 -43312.9 31412.5 19778 111213 19850.1 -19262 -7.41465 
329 1 35.5943 6.9202 7.4067 6.00636 -35143.7 29054.2 -20384.7 132960 -11262.3 -11281.2 -7.41198 
330 1 36.3191 8.14221 7.40848 5.9997 -47321.6 35136.2 23814.1 115994 20632.5 -18463 -7.41501 
331 1 37.7386 8.13418 7.40951 6.00515 -37922.3 32472.8 -24412.7 136327 -10934.3 -9983.57 -7.4118 
332 1 38.4318 6.89546 7.40996 5.99567 -39995.3 28122.6 21135.6 129050 21268.9 -16545.3 -7.41485 
20 1 40.4814 0.73016 7.41018 5.98676 -11638.1 3304.11 2691.14 148363 19509.9 -12869.1 -7.41355 
21 1 41.901 0.724308 7.41125 5.98665 -10847.2 3557.2 -2693.19 165110 -19282.1 -11277.5 -7.41322 
22 1 44.7411 0.70287 7.41317 5.98279 -11779 3524.15 2630.17 162355 20539.5 -10340.4 -7.4136 
23 1 46.1607 0.698383 7.41391 5.98253 -10949.6 3899.57 -2626.55 175655 -20174.7 -8986.17 -7.41327 
97 1 39.7875 1.9683 7.40957 5.99088 -15210.6 8034.42 -6589.86 158125 -17710.3 -11881.3 -7.41292 
98 1 40.5134 3.18982 7.41051 5.98928 -22619.8 12620.1 10435.5 146176 20867 -13765.6 -7.41409 
99 1 41.9329 3.18388 7.41143 5.99027 -18871.8 11941.3 -10579.5 163027 -17263.2 -10376.6 -7.41271 
100 1 42.6271 1.94583 7.41191 5.98564 -16945.5 7675.63 6627.46 154997 20791.3 -12012.4 -7.41385 
101 1 44.0466 1.94067 7.41273 5.98602 -14676.3 7490.92 -6684.22 170114 -18823.9 -9744.31 -7.41298 
102 1 44.7723 3.16247 7.41348 5.98476 -20986.1 11170.4 10631.1 160150 21839.8 -11037.5 -7.41417 
103 1 46.1918 3.1579 7.41408 5.98571 -17257.5 10655.8 -10724 173568 -18251.4 -8292.76 -7.41275 
104 1 46.8864 1.92017 7.41442 5.98198 -15907.2 7133.78 6636.41 167550 21634.3 -9366.54 -7.4139 
105 1 48.306 1.91622 7.41496 5.9822 -13677.3 6994.01 -6675.68 179230 -19606.1 -7529.16 -7.41303 
215 1 39.8196 4.42813 7.41 5.99526 -23755.5 17062.3 -14229.8 154460 -15485.5 -10860 -7.41244 
216 1 40.545 5.64999 7.41127 5.99217 -33046.1 21858.7 17972.3 140804 21675.5 -14646.7 -7.41464 
217 1 41.9645 5.64388 7.41205 5.995 -26477.9 20205.7 -18250.2 157826 -14983.8 -9455.82 -7.41224 
218 1 42.6585 4.4057 7.41244 5.98821 -26752 16107.5 14437.5 151225 21860.3 -12802.7 -7.41442 
219 1 44.078 4.4004 7.41312 5.99 -21606.2 15019.2 -14608.4 166445 -16712.9 -8941.87 -7.41249 
220 1 44.8031 5.6225 7.4142 5.9875 -29678.9 18766.2 18441.6 154752 22614.1 -11730.4 -7.41474 
221 1 46.2227 5.61775 7.41466 5.99001 -23157.9 17351 -18623.9 168354 -16078.8 -7587.9 -7.41227 
222 1 46.9172 4.37994 7.41493 5.98402 -23884.5 13854.8 14650 163747 22665.4 -9967.93 -7.41448 
223 1 48.3367 4.37586 7.41533 5.98573 -18821.3 12851.6 -14763.9 175519 -17585.2 -6929.86 -7.41252 
333 1 39.8513 6.88843 7.41085 6.00064 -31916.8 26141 -21555.1 147738 -13058.6 -9811.11 -7.41201 
334 1 40.5759 8.11069 7.4124 5.99475 -42844 30903.9 25128.9 132590 21868.4 -15513.2 -7.41519 
335 1 41.9954 8.10431 7.41303 5.99986 -33590.2 28540.8 -25535.1 149713 -12566.1 -8509.62 -7.41182 
336 1 42.6894 6.86605 7.41337 5.99127 -36034.8 24438 21966.2 144369 22353.5 -13585.2 -7.41498 
337 1 44.1089 6.86053 7.4139 5.99503 -28112.1 22605.8 -22244.5 159719 -14408 -8121.62 -7.41203 
338 1 44.8334 8.08297 7.41528 5.9908 -37658.8 26195.9 25902.4 146486 22795.9 -12421.1 -7.4153 
339 1 46.2529 8.07796 7.41559 5.99529 -28482.1 24116 -26169.4 160206 -13773.8 -6866.42 -7.41183 
340 1 46.9474 6.84009 7.41582 5.98713 -31337.2 20513.2 22404.4 156861 23142.5 -10570.5 -7.41505 
24 1 49.0009 0.678695 7.41526 5.97983 -11560.5 3860.23 2519.24 173484 21265.7 -7797.15 -7.41363 
25 1 50.4205 0.675264 7.41575 5.97945 -10792.9 4128.2 -2525.02 183394 -20783.1 -6668.06 -7.41331 
26 1 53.2607 0.65689 7.41664 5.97793 -11349.6 4042.64 2379.72 181798 21749 -5308.23 -7.41364 
27 1 54.6803 0.654208 7.41692 5.97738 -10535.7 4336.38 -2401.31 188378 -21167.5 -4372.15 -7.41333 
28 1 57.5207 0.63671 7.41744 5.97657 -10904.2 4193.19 2228.83 187384 22038.9 -2891.88 -7.41364 
106 1 49.0315 3.13823 7.41557 5.98129 -18878.5 9780.08 10669.5 171244 22525.4 -8308.21 -7.4142 
107 1 50.451 3.13472 7.41592 5.98218 -15261.6 9163.17 -10737.3 181259 -18932.8 -6165.84 -7.41278 
108 1 51.146 1.89726 7.41613 5.97929 -14775.5 6504.18 6563.27 177259 22213.4 -6755.1 -7.41392 
109 1 52.5656 1.89421 7.41644 5.9794 -12616.2 6255.68 -6601.56 185561 -20125.8 -5309.95 -7.41305 
110 1 53.2909 3.11636 7.41695 5.97879 -16702 8140.8 10611.2 179507 22981.4 -5646.42 -7.41422 
111 1 54.7105 3.1136 7.4171 5.97963 -13080.9 7600.85 -10668.2 186196 -19368.7 -4045.22 -7.4128 
112 1 55.4057 1.87634 7.41722 5.97749 -13383.5 5830.85 6445.15 184151 22582.8 -4219.04 -7.41393 
113 1 56.8253 1.87389 7.41735 5.97759 -11261.7 5479.43 -6486.72 189188 -20435.2 -3114.11 -7.41307 
114 1 57.5505 3.09612 7.41778 5.97726 -14221.4 6511.54 10500.6 185003 23256.1 -3067.59 -7.41422 
224 1 49.0617 5.59811 7.41627 5.98361 -25694.7 15566.4 18643.1 165827 23278.6 -8821.12 -7.41479 
225 1 50.4812 5.59443 7.41648 5.986 -19284.4 14224.6 -18766.2 176000 -16843.4 -5658.05 -7.41229 
226 1 51.1762 4.35691 7.41664 5.98082 -20818.2 11475.5 14692.6 173375 23219 -7179.45 -7.4145 
227 1 52.5958 4.35374 7.41682 5.98244 -15866 10388.6 -14775.5 181803 -18172.1 -4895.76 -7.41254 
228 1 53.3207 5.57609 7.41765 5.9807 -21567.5 12165.3 18675 174055 23722 -5988.96 -7.41481 
229 1 54.7403 5.57316 7.41767 5.9829 -15176.1 10905.8 -18761.5 180888 -17339.1 -3716.72 -7.4123 
230 1 55.4356 4.33588 7.41774 5.97861 -17463 8999.94 14635.1 180222 23573.2 -4476.82 -7.41452 
231 1 56.8551 4.33331 7.41774 5.98006 -12548.6 7888.42 -14698.6 185377 -18527 -2870.07 -7.41255 
232 1 57.5801 5.55569 7.41849 5.97867 -17025.6 8753.27 18610.8 179506 23990.6 -3247.7 -7.41482 
341 1 48.3669 6.83579 7.41608 5.99028 -23558.7 18737 -22586.8 168772 -15378.8 -6320.23 -7.41205 
342 1 49.0914 8.05834 7.41731 5.98708 -31897.7 21256.2 26291.2 157515 23459.3 -9338.59 -7.41537 
343 1 50.5109 8.05439 7.41738 5.99079 -22833.9 19295.7 -26465.4 167815 -14627.6 -5140.84 -7.41184 
344 1 51.2059 6.81687 7.41752 5.98351 -26343.4 16377 22578.7 166471 23688.8 -7609.06 -7.41509 
345 1 52.6255 6.81348 7.41755 5.98649 -18706.9 14581.9 -22700.9 175025 -16040.3 -4476.84 -7.41207 
346 1 53.3499 8.03607 7.41868 5.9837 -25783.3 16122.7 26431 165690 23905.8 -6338.65 -7.4154 
347 1 54.7695 8.03288 7.41856 5.98689 -16764.5 14267.3 -26543.6 172680 -15188.1 -3384.14 -7.41185 
348 1 55.465 6.79563 7.41861 5.98081 -21009.7 12099.3 22592.9 173279 24040.4 -4740.68 -7.41511 
349 1 56.8846 6.79285 7.41847 5.98331 -13403.8 10339.9 -22673.2 178557 -16446.4 -2625.19 -7.41208 
350 1 57.6091 8.01542 7.41951 5.98122 -19285.4 10932.2 26424.1 171143 24178.6 -3434.31 -7.41541 
29 1 58.9403 0.634482 7.41757 5.97627 -10165.4 4218.34 -2263.15 190795 -21370.9 -2106.42 -7.41335 
30 1 61.7807 0.617439 7.41778 5.97586 -10415.3 4051.06 2076.31 190393 22167.7 -533.265 -7.41364 
31 1 63.2003 0.615379 7.41776 5.97595 -9708.5 3871.94 -2113.47 190685 -21416.6 147.654 -7.41336 
32 1 66.0407 0.59837 7.41767 5.97573 -9858.47 3644.2 1926.43 190887 22151.5 1799.5 -7.41363 
33 1 67.4603 0.596192 7.41751 5.9762 -9198.84 3191.98 -1953.67 188034 -21310.9 2421.35 -7.41336 
115 1 58.9701 3.09382 7.41777 5.97797 -10651.9 5772.48 -10549.8 188534 -19604.3 -1942.69 -7.41281 
116 1 59.6656 1.85668 7.41779 5.97646 -11870 4879.34 6305.59 188393 22783.6 -1755.17 -7.41393 
117 1 61.0852 1.85455 7.41777 5.97659 -9739.39 4408.58 -6346.36 190292 -20568.7 -936.988 -7.41308 
118 1 61.8105 3.07678 7.41814 5.97632 -11679.9 4611.86 10365.9 187934 23380.6 -552.077 -7.41422 
119 1 63.2301 3.07465 7.41798 5.97686 -8164 3662 -10400.1 188348 -19663.5 154.673 -7.41282 
120 1 63.9256 1.83757 7.41792 5.97566 -10227.8 3697.45 6158.76 190108 22839.7 663.703 -7.41392 
121 1 65.3452 1.83547 7.41776 5.97617 -8100.92 3043.36 -6187.6 188882 -20541.4 1244.76 -7.41309 
122 1 66.0706 3.05764 7.41806 5.97573 -9016.49 2406.59 10218.4 188329 23371 1937.04 -7.41421 
123 1 67.4902 3.05539 7.41776 5.97665 -5538.17 1185.8 -10225.4 185578 -19553.5 2271.87 -7.41283 
233 1 58.9997 5.55322 7.41834 5.98045 -10710.6 7350.84 -18669.6 183135 -17612.4 -1780.02 -7.41232 
234 1 59.6953 4.31611 7.41833 5.97722 -13851.2 6327.53 14524.9 184403 23767.2 -1853.66 -7.41452 
235 1 61.1149 4.31386 7.41818 5.97829 -8952.79 5090.21 -14568.7 186397 -18685.4 -853.007 -7.41256 
236 1 61.8399 5.53618 7.41886 5.97748 -12460.5 5123.54 18495.8 182367 24114.2 -573.966 -7.41482 
237 1 63.2595 5.53389 7.41857 5.97888 -6193.13 3456.84 -18522.5 182856 -17687.9 158.606 -7.41233 
238 1 63.9553 4.29689 7.41848 5.97646 -10178.1 3367.74 14387.8 186033 23824.7 721.824 -7.41451 
239 1 65.3749 4.29466 7.41818 5.97741 -5281 1922.9 -14403.1 184877 -18663.5 1172.22 -7.41257 
240 1 66.1001 5.51688 7.4188 5.97689 -7783.15 1138.98 18349.5 182674 24108.9 2073.25 -7.41481 
241 1 67.5198 5.51446 7.41838 5.97823 -1554.09 -778.94 -18332.2 180001 -17573.4 2116.9 -7.41233 
351 1 59.0287 8.01269 7.41924 5.98397 -10342.8 9016.66 -26489.3 174883 -15502.6 -1617.67 -7.41186 
352 1 59.7245 6.77565 7.41921 5.979 -15385.5 7678.89 22517.5 177398 24234.4 -1957.11 -7.41512 
353 1 61.1441 6.77319 7.41893 5.98108 -7798.09 5827.85 -22560.3 179494 -16633.2 -771.347 -7.41209 
354 1 61.8689 7.99566 7.41989 5.97961 -12732.4 5577.68 26333.7 173930 24305.3 -600.48 -7.41541 
355 1 63.2885 7.99311 7.41948 5.98195 -3835.61 3380.33 -26350.4 174478 -15596.3 158.451 -7.41187 
356 1 63.9845 6.75622 7.41937 5.97804 -9687.81 2967.68 22391.1 178932 24294.2 777.202 -7.41511 
357 1 65.4042 6.75379 7.41895 5.97974 -2110.91 897.805 -22389.4 177878 -16618 1094.33 -7.4121 
358 1 66.1292 7.97609 7.41985 5.97889 -6073.36 -148.648 26186.3 174171 24302.4 2207.16 -7.4154 
359 1 67.5489 7.97343 7.4193 5.98086 2800.43 -2605.06 -26143.4 171547 -15477.4 1953.59 -7.41188 
34 1 70.3008 0.578793 7.41712 5.97648 -9221.06 2864.45 1778.87 188837 21987.5 4142.05 -7.41362 
35 1 71.7204 0.576208 7.4168 5.97733 -8589.28 2193.44 -1784.76 182859 -21040.4 4745.73 -7.41336 
36 1 74.5609 0.558003 7.41605 5.97814 -8602.96 1785 1629.81 184256 21656.1 6518.25 -7.41359 
37 1 75.9805 0.554721 7.41553 5.97905 -7933.4 1081.5 -1607.43 174983 -20575.4 7136.19 -7.41336 
124 1 68.1858 1.81831 7.41761 5.97574 -8661.84 2188.75 6008.05 189259 22757.7 3076.26 -7.41391 
125 1 69.6054 1.81595 7.4173 5.97662 -6549.64 1338.19 -6011.52 184912 -20349.5 3461.45 -7.41309 
126 1 70.3309 3.03798 7.41753 5.97605 -6349.72 -97.2009 10055.1 186198 23225.5 4440.48 -7.41419 
127 1 71.7505 3.03533 7.41707 5.97734 -2873.34 -1539.29 -10020.9 180292 -19261 4432.9 -7.41283 
128 1 72.446 1.79819 7.41682 5.97672 -7075.15 424.835 5846.1 185928 22527.6 5516.38 -7.41389 
129 1 73.8656 1.79527 7.41634 5.97798 -4978.99 -693.704 -5813.06 178376 -19972 5734.13 -7.41309 
130 1 74.5914 3.01711 7.41649 5.97727 -3731.1 -2908.41 9859.37 181541 22925.9 6986.8 -7.41417 
131 1 76.0111 3.01377 7.41584 5.97894 -205.152 -4483.84 -9771.94 172351 -18755.2 6647.44 -7.41283 
132 1 76.7063 1.77649 7.41546 5.97865 -5321.64 -1522.6 5660.52 179983 22120.3 7999.37 -7.41386 
242 1 68.2156 4.2775 7.41819 5.97611 -6617.39 81.9276 14230.1 185107 23752.4 3293.12 -7.4145 
243 1 69.6352 4.27502 7.41775 5.97742 -1697.4 -1527.19 -14201.9 180827 -18457.4 3228.58 -7.41258 
244 1 70.3607 5.49705 7.4183 5.97676 -3103.36 -3068.19 18165.7 180449 23974.1 4738.59 -7.41479 
245 1 71.7804 5.49424 7.41772 5.97848 3135.94 -5273.93 -18088.3 174603 -17255.5 4111.26 -7.41234 
246 1 72.4762 4.25726 7.41743 5.97665 -3018.02 -3415.15 14037 181675 23542.1 5898.22 -7.41448 
247 1 73.8959 4.25422 7.41682 5.97835 1906.74 -5314.78 -13950.4 174184 -18046 5330.6 -7.41258 
248 1 74.6216 5.47601 7.41728 5.97756 1411.77 -7572.85 17915.4 175705 23693.1 7454.23 -7.41476 
249 1 76.0414 5.4725 7.41651 5.97966 7733.55 -10025.9 -17760 166594 -16702.7 6144.61 -7.41233 
250 1 76.737 4.23543 7.4161 5.97815 656.205 -7134.79 13777 175675 23166.7 8556.11 -7.41444 
360 1 68.245 6.73662 7.41911 5.97759 -4164.77 -2055.4 22222.2 177935 24226.4 3508.93 -7.4151 
361 1 69.6647 6.73393 7.41854 5.97931 3476.53 -4296.58 -22159.9 173701 -16396.3 2986.72 -7.4121 
362 1 70.39 7.95601 7.41937 5.97858 515.746 -6097.82 25974 171869 24170.2 5035.94 -7.41538 
363 1 71.8098 7.95294 7.41866 5.9807 9418.09 -8901.88 -25852.5 166038 -15132.2 3776.07 -7.41188 
364 1 72.506 6.71616 7.41837 5.97773 1428.05 -7303.54 21988.9 174430 24025.1 6279.55 -7.41507 
365 1 73.9257 6.71292 7.41763 5.97983 9103.65 -9844.07 -21847.4 166951 -15947.2 4912.67 -7.4121 
366 1 74.6514 7.9347 7.41837 5.97899 6977.75 -12354.9 25655.3 167038 23894.6 7920.49 -7.41535 
367 1 76.0711 7.93094 7.41748 5.98148 15981.3 -15421 -25432.4 157918 -14528.4 5621.18 -7.41189 
368 1 76.7673 6.69412 7.41707 5.97882 6992.58 -12728.8 21641.7 168350 23665.7 9110.65 -7.41503 
38 1 78.821 0.535274 7.41435 5.98083 -7709.52 740.463 1474.63 176965 21118.4 8927.16 -7.41355 
39 1 80.2406 0.530991 7.41358 5.98164 -7071.87 -82.1781 -1424.16 164286 -19868.4 9579.38 -7.41334 
40 1 83.081 0.509863 7.41183 5.98456 -6877.61 -452.482 1307.24 166870 20318.4 11328.4 -7.4135 
41 1 84.5006 0.504267 7.41076 5.98525 -6156.34 -1176.57 -1237.9 150765 -18859.3 12015.5 -7.41329 
133 1 78.126 1.77273 7.41476 5.98002 -3188.95 -2700.13 -5583.43 169071 -19368.8 8063.91 -7.41308 
134 1 78.8521 2.9943 7.4148 5.97951 -973.367 -5679.11 9603.13 174192 22436 9577.9 -7.41412 
135 1 80.2717 2.98996 7.41391 5.98137 2556.99 -7479.01 -9454.51 161604 -17988.2 8897.27 -7.41281 
136 1 80.9667 1.75249 7.41338 5.98165 -3645.49 -3483.57 5430.45 171287 21490.4 10507.6 -7.41381 
137 1 82.3864 1.74757 7.41241 5.98294 -1543.17 -4847.14 -5310.16 156942 -18485.2 10414.1 -7.41306 
138 1 83.1128 2.96882 7.4123 5.98284 1586.18 -8541.45 9246.19 164080 21702.7 12173.5 -7.41405 
139 1 84.5326 2.96316 7.4111 5.98466 5237.51 -10310.3 -9034.84 148063 -16898.1 11120.5 -7.41278 
140 1 85.2272 1.72543 7.41039 5.98573 -1728.84 -5319.46 5132.47 159785 20574.7 12973.6 -7.41372 
141 1 86.6468 1.71905 7.40906 5.98699 378.47 -6738.82 -4975.02 142017 -17257.3 12696.2 -7.41301 
251 1 78.1567 4.23156 7.41527 5.98023 5668.55 -9147.54 -13618 164810 -17388 7473.03 -7.41257 
252 1 78.8829 5.45303 7.41563 5.97939 6018.56 -12151.9 17547.2 168331 23233.7 10224.2 -7.4147 
253 1 80.3026 5.44853 7.41461 5.98188 12386.8 -14798.6 -17298.3 155796 -15866.2 8192.89 -7.41233 
254 1 80.9981 4.21131 7.41404 5.98073 4130.37 -10806.7 13401.7 166929 22584.3 11250.3 -7.41438 
255 1 82.4178 4.20628 7.41294 5.9831 9158.09 -13061.8 -13161.6 152651 -16428.2 9615.31 -7.41256 
256 1 83.1444 5.42738 7.41315 5.98235 10295 -16678.3 16986.7 158211 22546.8 13007.1 -7.41462 
257 1 84.5642 5.42157 7.41183 5.98521 16816.8 -19403.2 -16632.1 142215 -14683.6 10192.1 -7.41231 
258 1 85.2593 4.18413 7.41107 5.98444 7652.91 -14238 12848.1 155417 21736.1 13911 -7.41428 
259 1 86.6791 4.17764 7.40962 5.98684 12716.1 -16683.5 -12521.5 137741 -15101.9 11669.4 -7.41253 
369 1 78.1871 6.69004 7.41612 5.98131 14763.6 -15538.8 -21400.2 157528 -15228.3 6860.39 -7.4121 
370 1 78.9132 7.91146 7.41675 5.98044 13351.7 -18647.8 25154.8 159616 23447.6 10865.7 -7.41528 
371 1 80.333 7.90671 7.41561 5.98331 22432.2 -22043.7 -24807 147074 -13617 7458.41 -7.41189 
372 1 81.029 6.66978 7.41504 5.98102 12198.4 -18119.2 21103.6 159585 23111.2 11985.5 -7.41495 
373 1 82.4488 6.66455 7.41382 5.98389 20016.3 -21257.9 -20743.6 145338 -14184 8784.63 -7.4121 
374 1 83.1755 7.88556 7.41431 5.98305 19273.7 -24833.3 24366.2 149461 22785.8 13827.9 -7.41518 
375 1 84.5954 7.87951 7.41287 5.98628 28494.4 -28434.1 -23870.3 133518 -12335.2 9221.41 -7.41189 
376 1 85.2911 6.6424 7.4121 5.9844 17221.9 -23227.8 20273.3 148082 22308.7 14831.1 -7.41483 
377 1 86.711 6.63572 7.41054 5.98763 25120.4 -26576.2 -19778.3 130438 -12749.8 10597.5 -7.41209 
490 1 81.0594 9.12792 7.41629 5.98245 20402.9 -25520.9 28379.1 149569 23027.4 12711.7 -7.41551 
491 1 82.4793 9.1224 7.41496 5.98567 30868.8 -29277.8 -27901.5 135318 -11861.3 7915.16 -7.41169 
494 1 85.3222 9.10026 7.41339 5.98552 26872.4 -32244.9 27239.5 138106 22249.4 15730.6 -7.41537 
495 1 86.7422 9.09329 7.41174 5.98909 37415.3 -36329.3 -26579.2 120487 -10315 9474.01 -7.4117 
42 1 87.341 0.481025 7.40829 5.9894 -5922.27 -1431.35 1125.53 153958 19186.3 13626.6 -7.4134 
43 1 88.7607 0.473812 7.40682 5.99003 -5345.99 -2396.88 -1051.75 134532 -17485.2 14324.4 -7.41322 
44 1 91.6009 0.448048 7.40349 5.9953 -5013.96 -2488.94 929.937 138337 17651.9 15669.6 -7.41327 
45 1 93.0206 0.438935 7.40156 5.9956 -4478.39 -3397.77 -865.43 115920 -15699.3 16330.8 -7.41311 
46 1 95.8608 0.410291 7.39723 6.00219 -4791.81 -3550.11 727.246 120330 15669.1 17267.1 -7.41309 
142 1 87.3737 2.93991 7.40877 5.98732 4001.5 -11062.3 8742.94 151194 20660.7 14673.7 -7.41394 
143 1 88.7935 2.93264 7.40717 5.98914 7575.29 -13094.5 -8471.89 131857 -15422 13200.7 -7.41274 
144 1 89.4876 1.69458 7.40624 5.99094 -303.403 -7159.32 4741.4 145511 19303.6 15269 -7.4136 
145 1 90.9073 1.68644 7.40449 5.99212 1824.26 -8593.07 -4556.97 124557 -15626.6 14764.3 -7.41293 
146 1 91.6347 2.90686 7.40396 5.99293 6075.32 -13378 8048.39 135637 19242.9 16915 -7.41377 
147 1 93.0544 2.8977 7.40192 5.99405 9631.72 -15496.8 -7722.18 113328 -13512.6 14974.3 -7.41266 
148 1 93.748 1.65927 7.40072 5.99724 864.619 -8676.61 4241.5 128684 17616 17210.8 -7.41342 
149 1 95.1678 1.6491 7.39848 5.99751 2812.71 -10321.4 -4037.7 105039 -13563.9 16431.3 -7.41282 
150 1 95.8956 2.86906 7.3977 5.99962 7091.66 -15364.8 7134.5 117722 17408.6 18686.9 -7.41354 
260 1 87.4062 5.39832 7.40965 5.98651 14188.8 -20735.3 16146.7 145336 21573.3 15697.9 -7.41448 
261 1 88.826 5.3909 7.40794 5.98923 20664.1 -23800.7 -15677.7 126038 -13092.8 12029 -7.41229 