(written by TR)

20888	atoms
1	atom types
0	125.676011	xlo xhi
0	217.677236	ylo yhi
0	18.3999996	zlo zhi


Masses

1	12

Atoms

1 1 1 0 0.00000000 0.00000000 7.50000000 0 0 0
2 1 1 0 2.14193145 1.20885480 7.50000000 0 0 0
3 1 1 0 3.56186336 1.19495992 7.50000000 0 0 0
4 1 1 0 6.40172770 1.16717015 7.50000000 0 0 0
5 1 1 0 7.82165961 1.15327526 7.50000000 0 0 0
6 1 1 0 10.66152395 1.12548549 7.50000000 0 0 0
7 1 1 0 12.08145586 1.11159061 7.50000000 0 0 0
8 1 1 0 14.92132020 1.08380084 7.50000000 0 0 0
9 1 1 0 16.34125211 1.06990596 7.50000000 0 0 0
10 1 1 0 19.18111645 1.04211619 7.50000000 0 0 0
11 1 1 0 20.60104836 1.02822131 7.50000000 0 0 0
12 1 1 0 23.44091270 1.00043154 7.50000000 0 0 0
13 1 1 0 24.86084461 0.98653666 7.50000000 0 0 0
14 1 1 0 27.70070895 0.95874689 7.50000000 0 0 0
15 1 1 0 29.12064086 0.94485200 7.50000000 0 0 0
16 1 1 0 31.96050520 0.91706223 7.50000000 0 0 0
17 1 1 0 33.38043712 0.90316735 7.50000000 0 0 0
18 1 1 0 36.22030145 0.87537758 7.50000000 0 0 0
19 1 1 0 37.64023337 0.86148270 7.50000000 0 0 0
20 1 1 0 40.48009770 0.83369293 7.50000000 0 0 0
21 1 1 0 41.90002962 0.81979805 7.50000000 0 0 0
22 1 1 0 44.73989395 0.79200828 7.50000000 0 0 0
23 1 1 0 46.15982587 0.77811339 7.50000000 0 0 0
24 1 1 0 48.99969020 0.75032362 7.50000000 0 0 0
25 1 1 0 50.41962212 0.73642874 7.50000000 0 0 0
26 1 1 0 53.25948645 0.70863897 7.50000000 0 0 0
27 1 1 0 54.67941837 0.69474409 7.50000000 0 0 0
28 1 1 0 57.51928270 0.66695432 7.50000000 0 0 0
29 1 1 0 58.93921462 0.65305944 7.50000000 0 0 0
30 1 1 0 61.77907895 0.62526967 7.50000000 0 0 0
31 1 1 0 63.19901087 0.61137479 7.50000000 0 0 0
32 1 1 0 66.03887520 0.58358502 7.50000000 0 0 0
33 1 1 0 67.45880712 0.56969013 7.50000000 0 0 0
34 1 1 0 70.29867145 0.54190036 7.50000000 0 0 0
35 1 1 0 71.71860337 0.52800548 7.50000000 0 0 0
36 1 1 0 74.55846770 0.50021571 7.50000000 0 0 0
37 1 1 0 75.97839962 0.48632083 7.50000000 0 0 0
38 1 1 0 78.81826395 0.45853106 7.50000000 0 0 0
39 1 1 0 80.23819587 0.44463618 7.50000000 0 0 0
40 1 1 0 83.07806020 0.41684641 7.50000000 0 0 0
41 1 1 0 84.49799212 0.40295153 7.50000000 0 0 0
42 1 1 0 87.33785645 0.37516176 7.50000000 0 0 0
43 1 1 0 88.75778837 0.36126687 7.50000000 0 0 0
44 1 1 0 91.59765270 0.33347710 7.50000000 0 0 0
45 1 1 0 93.01758462 0.31958222 7.50000000 0 0 0
46 1 1 0 95.85744895 0.29179245 7.50000000 0 0 0
47 1 1 0 97.27738087 0.27789757 7.50000000 0 0 0
48 1 1 0 100.11724520 0.25010780 7.50000000 0 0 0
49 1 1 0 101.53717712 0.23621292 7.50000000 0 0 0
50 1 1 0 104.37704145 0.20842315 7.50000000 0 0 0
51 1 1 0 105.79697337 0.19452826 7.50000000 0 0 0
52 1 1 0 108.63683770 0.16673849 7.50000000 0 0 0
53 1 1 0 110.05676962 0.15284361 7.50000000 0 0 0
54 1 1 0 112.89663395 0.12505384 7.50000000 0 0 0
55 1 1 0 114.31656587 0.11115896 7.50000000 0 0 0
56 1 1 0 117.15643020 0.08336919 7.50000000 0 0 0
57 1 1 0 118.57636212 0.06947431 7.50000000 0 0 0
58 1 1 0 121.41622645 0.04168454 7.50000000 0 0 0
59 1 1 0 122.83615837 0.02778966 7.50000000 0 0 0
60 1 1 0 0.02406664 2.45939425 7.50000000 0 0 0
61 1 1 0 1.44399866 2.44549937 7.50000000 0 0 0
62 1 1 0 2.16599809 3.66824905 7.50000000 0 0 0
63 1 1 0 3.58593001 3.65435417 7.50000000 0 0 0
64 1 1 0 4.28386289 2.41770960 7.50000000 0 0 0
65 1 1 0 5.70379491 2.40381471 7.50000000 0 0 0
66 1 1 0 6.42579434 3.62656440 7.50000000 0 0 0
67 1 1 0 7.84572626 3.61266951 7.50000000 0 0 0
68 1 1 0 8.54365914 2.37602495 7.50000000 0 0 0
69 1 1 0 9.96359116 2.36213006 7.50000000 0 0 0
70 1 1 0 10.68559059 3.58487974 7.50000000 0 0 0
71 1 1 0 12.10552251 3.57098486 7.50000000 0 0 0
72 1 1 0 12.80345539 2.33434029 7.50000000 0 0 0
73 1 1 0 14.22338741 2.32044541 7.50000000 0 0 0
74 1 1 0 14.94538684 3.54319509 7.50000000 0 0 0
75 1 1 0 16.36531876 3.52930021 7.50000000 0 0 0
76 1 1 0 17.06325164 2.29265564 7.50000000 0 0 0
77 1 1 0 18.48318366 2.27876076 7.50000000 0 0 0
78 1 1 0 19.20518309 3.50151044 7.50000000 0 0 0
79 1 1 0 20.62511501 3.48761556 7.50000000 0 0 0
80 1 1 0 21.32304789 2.25097099 7.50000000 0 0 0
81 1 1 0 22.74297991 2.23707611 7.50000000 0 0 0
82 1 1 0 23.46497934 3.45982579 7.50000000 0 0 0
83 1 1 0 24.88491126 3.44593091 7.50000000 0 0 0
84 1 1 0 25.58284414 2.20928634 7.50000000 0 0 0
85 1 1 0 27.00277616 2.19539145 7.50000000 0 0 0
86 1 1 0 27.72477559 3.41814114 7.50000000 0 0 0
87 1 1 0 29.14470751 3.40424625 7.50000000 0 0 0
88 1 1 0 29.84264039 2.16760168 7.50000000 0 0 0
89 1 1 0 31.26257241 2.15370680 7.50000000 0 0 0
90 1 1 0 31.98457184 3.37645648 7.50000000 0 0 0
91 1 1 0 33.40450376 3.36256160 7.50000000 0 0 0
92 1 1 0 34.10243664 2.12591703 7.50000000 0 0 0
93 1 1 0 35.52236866 2.11202215 7.50000000 0 0 0
94 1 1 0 36.24436809 3.33477183 7.50000000 0 0 0
95 1 1 0 37.66430001 3.32087695 7.50000000 0 0 0
96 1 1 0 38.36223289 2.08423238 7.50000000 0 0 0
97 1 1 0 39.78216491 2.07033750 7.50000000 0 0 0
98 1 1 0 40.50416434 3.29308718 7.50000000 0 0 0
99 1 1 0 41.92409626 3.27919230 7.50000000 0 0 0
100 1 1 0 42.62202915 2.04254773 7.50000000 0 0 0
101 1 1 0 44.04196116 2.02865284 7.50000000 0 0 0
102 1 1 0 44.76396059 3.25140253 7.50000000 0 0 0
103 1 1 0 46.18389251 3.23750764 7.50000000 0 0 0
104 1 1 0 46.88182540 2.00086308 7.50000000 0 0 0
105 1 1 0 48.30175741 1.98696819 7.50000000 0 0 0
106 1 1 0 49.02375684 3.20971787 7.50000000 0 0 0
107 1 1 0 50.44368876 3.19582299 7.50000000 0 0 0
108 1 1 0 51.14162165 1.95917842 7.50000000 0 0 0
109 1 1 0 52.56155366 1.94528354 7.50000000 0 0 0
110 1 1 0 53.28355309 3.16803322 7.50000000 0 0 0
111 1 1 0 54.70348501 3.15413834 7.50000000 0 0 0
112 1 1 0 55.40141790 1.91749377 7.50000000 0 0 0
113 1 1 0 56.82134991 1.90359889 7.50000000 0 0 0
114 1 1 0 57.54334934 3.12634857 7.50000000 0 0 0
115 1 1 0 58.96328126 3.11245369 7.50000000 0 0 0
116 1 1 0 59.66121415 1.87580912 7.50000000 0 0 0
117 1 1 0 61.08114616 1.86191424 7.50000000 0 0 0
118 1 1 0 61.80314559 3.08466392 7.50000000 0 0 0
119 1 1 0 63.22307751 3.07076904 7.50000000 0 0 0
120 1 1 0 63.92101040 1.83412447 7.50000000 0 0 0
121 1 1 0 65.34094241 1.82022958 7.50000000 0 0 0
122 1 1 0 66.06294184 3.04297927 7.50000000 0 0 0
123 1 1 0 67.48287376 3.02908438 7.50000000 0 0 0
124 1 1 0 68.18080665 1.79243981 7.50000000 0 0 0
125 1 1 0 69.60073866 1.77854493 7.50000000 0 0 0
126 1 1 0 70.32273809 3.00129461 7.50000000 0 0 0
127 1 1 0 71.74267001 2.98739973 7.50000000 0 0 0
128 1 1 0 72.44060290 1.75075516 7.50000000 0 0 0
129 1 1 0 73.86053491 1.73686028 7.50000000 0 0 0
130 1 1 0 74.58253434 2.95960996 7.50000000 0 0 0
131 1 1 0 76.00246626 2.94571508 7.50000000 0 0 0
132 1 1 0 76.70039915 1.70907051 7.50000000 0 0 0
133 1 1 0 78.12033116 1.69517563 7.50000000 0 0 0
134 1 1 0 78.84233059 2.91792531 7.50000000 0 0 0
135 1 1 0 80.26226251 2.90403043 7.50000000 0 0 0
136 1 1 0 80.96019540 1.66738586 7.50000000 0 0 0
137 1 1 0 82.38012741 1.65349097 7.50000000 0 0 0
138 1 1 0 83.10212684 2.87624066 7.50000000 0 0 0
139 1 1 0 84.52205876 2.86234577 7.50000000 0 0 0
140 1 1 0 85.21999165 1.62570121 7.50000000 0 0 0
141 1 1 0 86.63992366 1.61180632 7.50000000 0 0 0
142 1 1 0 87.36192309 2.83455600 7.50000000 0 0 0
143 1 1 0 88.78185501 2.82066112 7.50000000 0 0 0
144 1 1 0 89.47978790 1.58401655 7.50000000 0 0 0
145 1 1 0 90.89971991 1.57012167 7.50000000 0 0 0
146 1 1 0 91.62171934 2.79287135 7.50000000 0 0 0
147 1 1 0 93.04165126 2.77897647 7.50000000 0 0 0
148 1 1 0 93.73958415 1.54233190 7.50000000 0 0 0
149 1 1 0 95.15951617 1.52843702 7.50000000 0 0 0
150 1 1 0 95.88151559 2.75118670 7.50000000 0 0 0
151 1 1 0 97.30144751 2.73729182 7.50000000 0 0 0
152 1 1 0 97.99938040 1.50064725 7.50000000 0 0 0
153 1 1 0 99.41931242 1.48675237 7.50000000 0 0 0
154 1 1 0 100.14131185 2.70950205 7.50000000 0 0 0
155 1 1 0 101.56124376 2.69560717 7.50000000 0 0 0
156 1 1 0 102.25917665 1.45896260 7.50000000 0 0 0
157 1 1 0 103.67910867 1.44506771 7.50000000 0 0 0
158 1 1 0 104.40110810 2.66781740 7.50000000 0 0 0
159 1 1 0 105.82104001 2.65392251 7.50000000 0 0 0
160 1 1 0 106.51897290 1.41727795 7.50000000 0 0 0
161 1 1 0 107.93890492 1.40338306 7.50000000 0 0 0
162 1 1 0 108.66090435 2.62613274 7.50000000 0 0 0
163 1 1 0 110.08083626 2.61223786 7.50000000 0 0 0
164 1 1 0 110.77876915 1.37559329 7.50000000 0 0 0
165 1 1 0 112.19870117 1.36169841 7.50000000 0 0 0
166 1 1 0 112.92070060 2.58444809 7.50000000 0 0 0
167 1 1 0 114.34063251 2.57055321 7.50000000 0 0 0
168 1 1 0 115.03856540 1.33390864 7.50000000 0 0 0
169 1 1 0 116.45849742 1.32001376 7.50000000 0 0 0
170 1 1 0 117.18049685 2.54276344 7.50000000 0 0 0
171 1 1 0 118.60042876 2.52886856 7.50000000 0 0 0
172 1 1 0 119.29836165 1.29222399 7.50000000 0 0 0
173 1 1 0 120.71829367 1.27832911 7.50000000 0 0 0
174 1 1 0 121.44029310 2.50107879 7.50000000 0 0 0
175 1 1 0 122.86022501 2.48718391 7.50000000 0 0 0
176 1 1 0 123.55815790 1.25053934 7.50000000 0 0 0
177 1 1 0 124.97808992 1.23664445 7.50000000 0 0 0
178 1 1 0 0.04813329 4.91878850 7.50000000 0 0 0
179 1 1 0 1.46806530 4.90489362 7.50000000 0 0 0
180 1 1 0 2.19006473 6.12764330 7.50000000 0 0 0
181 1 1 0 3.60999665 6.11374842 7.50000000 0 0 0
182 1 1 0 4.30792954 4.87710385 7.50000000 0 0 0
183 1 1 0 5.72786155 4.86320896 7.50000000 0 0 0
184 1 1 0 6.44986098 6.08595865 7.50000000 0 0 0
185 1 1 0 7.86979290 6.07206376 7.50000000 0 0 0
186 1 1 0 8.56772579 4.83541919 7.50000000 0 0 0
187 1 1 0 9.98765780 4.82152431 7.50000000 0 0 0
188 1 1 0 10.70965723 6.04427399 7.50000000 0 0 0
189 1 1 0 12.12958915 6.03037911 7.50000000 0 0 0
190 1 1 0 12.82752204 4.79373454 7.50000000 0 0 0
191 1 1 0 14.24745405 4.77983966 7.50000000 0 0 0
192 1 1 0 14.96945348 6.00258934 7.50000000 0 0 0
193 1 1 0 16.38938540 5.98869446 7.50000000 0 0 0
194 1 1 0 17.08731829 4.75204989 7.50000000 0 0 0
195 1 1 0 18.50725030 4.73815501 7.50000000 0 0 0
196 1 1 0 19.22924973 5.96090469 7.50000000 0 0 0
197 1 1 0 20.64918165 5.94700981 7.50000000 0 0 0
198 1 1 0 21.34711454 4.71036524 7.50000000 0 0 0
199 1 1 0 22.76704655 4.69647035 7.50000000 0 0 0
200 1 1 0 23.48904598 5.91922004 7.50000000 0 0 0
201 1 1 0 24.90897790 5.90532515 7.50000000 0 0 0
202 1 1 0 25.60691079 4.66868059 7.50000000 0 0 0
203 1 1 0 27.02684280 4.65478570 7.50000000 0 0 0
204 1 1 0 27.74884223 5.87753538 7.50000000 0 0 0
205 1 1 0 29.16877415 5.86364050 7.50000000 0 0 0
206 1 1 0 29.86670704 4.62699593 7.50000000 0 0 0
207 1 1 0 31.28663905 4.61310105 7.50000000 0 0 0
208 1 1 0 32.00863848 5.83585073 7.50000000 0 0 0
209 1 1 0 33.42857040 5.82195585 7.50000000 0 0 0
210 1 1 0 34.12650329 4.58531128 7.50000000 0 0 0
211 1 1 0 35.54643530 4.57141640 7.50000000 0 0 0
212 1 1 0 36.26843473 5.79416608 7.50000000 0 0 0
213 1 1 0 37.68836665 5.78027120 7.50000000 0 0 0
214 1 1 0 38.38629954 4.54362663 7.50000000 0 0 0
215 1 1 0 39.80623155 4.52973175 7.50000000 0 0 0
216 1 1 0 40.52823098 5.75248143 7.50000000 0 0 0
217 1 1 0 41.94816290 5.73858655 7.50000000 0 0 0
218 1 1 0 42.64609579 4.50194198 7.50000000 0 0 0
219 1 1 0 44.06602780 4.48804709 7.50000000 0 0 0
220 1 1 0 44.78802723 5.71079678 7.50000000 0 0 0
221 1 1 0 46.20795915 5.69690189 7.50000000 0 0 0
222 1 1 0 46.90589204 4.46025733 7.50000000 0 0 0
223 1 1 0 48.32582405 4.44636244 7.50000000 0 0 0
224 1 1 0 49.04782348 5.66911212 7.50000000 0 0 0
225 1 1 0 50.46775540 5.65521724 7.50000000 0 0 0
226 1 1 0 51.16568829 4.41857267 7.50000000 0 0 0
227 1 1 0 52.58562031 4.40467779 7.50000000 0 0 0
228 1 1 0 53.30761973 5.62742747 7.50000000 0 0 0
229 1 1 0 54.72755165 5.61353259 7.50000000 0 0 0
230 1 1 0 55.42548454 4.37688802 7.50000000 0 0 0
231 1 1 0 56.84541656 4.36299314 7.50000000 0 0 0
232 1 1 0 57.56741599 5.58574282 7.50000000 0 0 0
233 1 1 0 58.98734790 5.57184794 7.50000000 0 0 0
234 1 1 0 59.68528079 4.33520337 7.50000000 0 0 0
235 1 1 0 61.10521281 4.32130849 7.50000000 0 0 0
236 1 1 0 61.82721224 5.54405817 7.50000000 0 0 0
237 1 1 0 63.24714415 5.53016329 7.50000000 0 0 0
238 1 1 0 63.94507704 4.29351872 7.50000000 0 0 0
239 1 1 0 65.36500906 4.27962383 7.50000000 0 0 0
240 1 1 0 66.08700849 5.50237352 7.50000000 0 0 0
241 1 1 0 67.50694040 5.48847863 7.50000000 0 0 0
242 1 1 0 68.20487329 4.25183406 7.50000000 0 0 0
243 1 1 0 69.62480531 4.23793918 7.50000000 0 0 0
244 1 1 0 70.34680474 5.46068886 7.50000000 0 0 0
245 1 1 0 71.76673665 5.44679398 7.50000000 0 0 0
246 1 1 0 72.46466954 4.21014941 7.50000000 0 0 0
247 1 1 0 73.88460156 4.19625453 7.50000000 0 0 0
248 1 1 0 74.60660099 5.41900421 7.50000000 0 0 0
249 1 1 0 76.02653290 5.40510933 7.50000000 0 0 0
250 1 1 0 76.72446579 4.16846476 7.50000000 0 0 0
251 1 1 0 78.14439781 4.15456988 7.50000000 0 0 0
252 1 1 0 78.86639724 5.37731956 7.50000000 0 0 0
253 1 1 0 80.28632915 5.36342468 7.50000000 0 0 0
254 1 1 0 80.98426204 4.12678011 7.50000000 0 0 0
255 1 1 0 82.40419406 4.11288522 7.50000000 0 0 0
256 1 1 0 83.12619349 5.33563491 7.50000000 0 0 0
257 1 1 0 84.54612540 5.32174002 7.50000000 0 0 0
258 1 1 0 85.24405829 4.08509546 7.50000000 0 0 0
259 1 1 0 86.66399031 4.07120057 7.50000000 0 0 0
260 1 1 0 87.38598974 5.29395025 7.50000000 0 0 0
261 1 1 0 88.80592165 5.28005537 7.50000000 0 0 0
262 1 1 0 89.50385454 4.04341080 7.50000000 0 0 0
263 1 1 0 90.92378656 4.02951592 7.50000000 0 0 0
264 1 1 0 91.64578599 5.25226560 7.50000000 0 0 0
265 1 1 0 93.06571790 5.23837072 7.50000000 0 0 0
266 1 1 0 93.76365079 4.00172615 7.50000000 0 0 0
267 1 1 0 95.18358281 3.98783127 7.50000000 0 0 0
268 1 1 0 95.90558224 5.21058095 7.50000000 0 0 0
269 1 1 0 97.32551415 5.19668607 7.50000000 0 0 0
270 1 1 0 98.02344704 3.96004150 7.50000000 0 0 0
271 1 1 0 99.44337906 3.94614662 7.50000000 0 0 0
272 1 1 0 100.16537849 5.16889630 7.50000000 0 0 0
273 1 1 0 101.58531040 5.15500142 7.50000000 0 0 0
274 1 1 0 102.28324329 3.91835685 7.50000000 0 0 0
275 1 1 0 103.70317531 3.90446196 7.50000000 0 0 0
276 1 1 0 104.42517474 5.12721165 7.50000000 0 0 0
277 1 1 0 105.84510665 5.11331676 7.50000000 0 0 0
278 1 1 0 106.54303954 3.87667219 7.50000000 0 0 0
279 1 1 0 107.96297156 3.86277731 7.50000000 0 0 0
280 1 1 0 108.68497099 5.08552699 7.50000000 0 0 0
281 1 1 0 110.10490290 5.07163211 7.50000000 0 0 0
282 1 1 0 110.80283579 3.83498754 7.50000000 0 0 0
283 1 1 0 112.22276781 3.82109266 7.50000000 0 0 0
284 1 1 0 112.94476724 5.04384234 7.50000000 0 0 0
285 1 1 0 114.36469916 5.02994746 7.50000000 0 0 0
286 1 1 0 115.06263204 3.79330289 7.50000000 0 0 0
287 1 1 0 116.48256406 3.77940801 7.50000000 0 0 0
288 1 1 0 117.20456349 5.00215769 7.50000000 0 0 0
289 1 1 0 118.62449541 4.98826281 7.50000000 0 0 0
290 1 1 0 119.32242829 3.75161824 7.50000000 0 0 0
291 1 1 0 120.74236031 3.73772335 7.50000000 0 0 0
292 1 1 0 121.46435974 4.96047304 7.50000000 0 0 0
293 1 1 0 122.88429166 4.94657815 7.50000000 0 0 0
294 1 1 0 123.58222454 3.70993359 7.50000000 0 0 0
295 1 1 0 125.00215656 3.69603870 7.50000000 0 0 0
296 1 1 0 0.07219993 7.37818275 7.50000000 0 0 0
297 1 1 0 1.49213194 7.36428787 7.50000000 0 0 0
298 1 1 0 2.21413137 8.58703755 7.50000000 0 0 0
299 1 1 0 3.63406329 8.57314267 7.50000000 0 0 0
300 1 1 0 4.33199618 7.33649810 7.50000000 0 0 0
301 1 1 0 5.75192819 7.32260321 7.50000000 0 0 0
302 1 1 0 6.47392762 8.54535290 7.50000000 0 0 0
303 1 1 0 7.89385954 8.53145801 7.50000000 0 0 0
304 1 1 0 8.59179243 7.29481344 7.50000000 0 0 0
305 1 1 0 10.01172445 7.28091856 7.50000000 0 0 0
306 1 1 0 10.73372387 8.50366824 7.50000000 0 0 0
307 1 1 0 12.15365579 8.48977336 7.50000000 0 0 0
308 1 1 0 12.85158868 7.25312879 7.50000000 0 0 0
309 1 1 0 14.27152070 7.23923391 7.50000000 0 0 0
310 1 1 0 14.99352012 8.46198359 7.50000000 0 0 0
311 1 1 0 16.41345204 8.44808871 7.50000000 0 0 0
312 1 1 0 17.11138493 7.21144414 7.50000000 0 0 0
313 1 1 0 18.53131695 7.19754926 7.50000000 0 0 0
314 1 1 0 19.25331638 8.42029894 7.50000000 0 0 0
315 1 1 0 20.67324829 8.40640406 7.50000000 0 0 0
316 1 1 0 21.37118118 7.16975949 7.50000000 0 0 0
317 1 1 0 22.79111320 7.15586460 7.50000000 0 0 0
318 1 1 0 23.51311263 8.37861429 7.50000000 0 0 0
319 1 1 0 24.93304454 8.36471940 7.50000000 0 0 0
320 1 1 0 25.63097743 7.12807484 7.50000000 0 0 0
321 1 1 0 27.05090945 7.11417995 7.50000000 0 0 0
322 1 1 0 27.77290888 8.33692963 7.50000000 0 0 0
323 1 1 0 29.19284079 8.32303475 7.50000000 0 0 0
324 1 1 0 29.89077368 7.08639018 7.50000000 0 0 0
325 1 1 0 31.31070570 7.07249530 7.50000000 0 0 0
326 1 1 0 32.03270513 8.29524498 7.50000000 0 0 0
327 1 1 0 33.45263704 8.28135010 7.50000000 0 0 0
328 1 1 0 34.15056993 7.04470553 7.50000000 0 0 0
329 1 1 0 35.57050195 7.03081065 7.50000000 0 0 0
330 1 1 0 36.29250138 8.25356033 7.50000000 0 0 0
331 1 1 0 37.71243329 8.23966545 7.50000000 0 0 0
332 1 1 0 38.41036618 7.00302088 7.50000000 0 0 0
333 1 1 0 39.83029820 6.98912600 7.50000000 0 0 0
334 1 1 0 40.55229763 8.21187568 7.50000000 0 0 0
335 1 1 0 41.97222954 8.19798080 7.50000000 0 0 0
336 1 1 0 42.67016243 6.96133623 7.50000000 0 0 0
337 1 1 0 44.09009445 6.94744134 7.50000000 0 0 0
338 1 1 0 44.81209388 8.17019103 7.50000000 0 0 0
339 1 1 0 46.23202579 8.15629614 7.50000000 0 0 0
340 1 1 0 46.92995868 6.91965157 7.50000000 0 0 0
341 1 1 0 48.34989070 6.90575669 7.50000000 0 0 0
342 1 1 0 49.07189013 8.12850637 7.50000000 0 0 0
343 1 1 0 50.49182204 8.11461149 7.50000000 0 0 0
344 1 1 0 51.18975493 6.87796692 7.50000000 0 0 0
345 1 1 0 52.60968695 6.86407204 7.50000000 0 0 0
346 1 1 0 53.33168638 8.08682172 7.50000000 0 0 0
347 1 1 0 54.75161829 8.07292684 7.50000000 0 0 0
348 1 1 0 55.44955118 6.83628227 7.50000000 0 0 0
349 1 1 0 56.86948320 6.82238739 7.50000000 0 0 0
350 1 1 0 57.59148263 8.04513707 7.50000000 0 0 0
351 1 1 0 59.01141454 8.03124219 7.50000000 0 0 0
352 1 1 0 59.70934743 6.79459762 7.50000000 0 0 0
353 1 1 0 61.12927945 6.78070273 7.50000000 0 0 0
354 1 1 0 61.85127888 8.00345242 7.50000000 0 0 0
355 1 1 0 63.27121079 7.98955753 7.50000000 0 0 0
356 1 1 0 63.96914368 6.75291297 7.50000000 0 0 0
357 1 1 0 65.38907570 6.73901808 7.50000000 0 0 0
358 1 1 0 66.11107513 7.96176776 7.50000000 0 0 0
359 1 1 0 67.53100704 7.94787288 7.50000000 0 0 0
360 1 1 0 68.22893993 6.71122831 7.50000000 0 0 0
361 1 1 0 69.64887195 6.69733343 7.50000000 0 0 0
362 1 1 0 70.37087138 7.92008311 7.50000000 0 0 0
363 1 1 0 71.79080330 7.90618823 7.50000000 0 0 0
364 1 1 0 72.48873618 6.66954366 7.50000000 0 0 0
365 1 1 0 73.90866820 6.65564878 7.50000000 0 0 0
366 1 1 0 74.63066763 7.87839846 7.50000000 0 0 0
367 1 1 0 76.05059955 7.86450358 7.50000000 0 0 0
368 1 1 0 76.74853243 6.62785901 7.50000000 0 0 0
369 1 1 0 78.16846445 6.61396413 7.50000000 0 0 0
370 1 1 0 78.89046388 7.83671381 7.50000000 0 0 0
371 1 1 0 80.31039580 7.82281893 7.50000000 0 0 0
372 1 1 0 81.00832868 6.58617436 7.50000000 0 0 0
373 1 1 0 82.42826070 6.57227947 7.50000000 0 0 0
374 1 1 0 83.15026013 7.79502916 7.50000000 0 0 0
375 1 1 0 84.57019205 7.78113427 7.50000000 0 0 0
376 1 1 0 85.26812493 6.54448971 7.50000000 0 0 0
377 1 1 0 86.68805695 6.53059482 7.50000000 0 0 0
378 1 1 0 87.41005638 7.75334450 7.50000000 0 0 0
379 1 1 0 88.82998830 7.73944962 7.50000000 0 0 0
380 1 1 0 89.52792118 6.50280505 7.50000000 0 0 0
381 1 1 0 90.94785320 6.48891017 7.50000000 0 0 0
382 1 1 0 91.66985263 7.71165985 7.50000000 0 0 0
383 1 1 0 93.08978455 7.69776497 7.50000000 0 0 0
384 1 1 0 93.78771743 6.46112040 7.50000000 0 0 0
385 1 1 0 95.20764945 6.44722552 7.50000000 0 0 0
386 1 1 0 95.92964888 7.66997520 7.50000000 0 0 0
387 1 1 0 97.34958080 7.65608032 7.50000000 0 0 0
388 1 1 0 98.04751368 6.41943575 7.50000000 0 0 0
389 1 1 0 99.46744570 6.40554087 7.50000000 0 0 0
390 1 1 0 100.18944513 7.62829055 7.50000000 0 0 0
391 1 1 0 101.60937705 7.61439567 7.50000000 0 0 0
392 1 1 0 102.30730993 6.37775110 7.50000000 0 0 0
393 1 1 0 103.72724195 6.36385621 7.50000000 0 0 0
394 1 1 0 104.44924138 7.58660590 7.50000000 0 0 0
395 1 1 0 105.86917330 7.57271101 7.50000000 0 0 0
396 1 1 0 106.56710618 6.33606644 7.50000000 0 0 0
397 1 1 0 107.98703820 6.32217156 7.50000000 0 0 0
398 1 1 0 108.70903763 7.54492124 7.50000000 0 0 0
399 1 1 0 110.12896955 7.53102636 7.50000000 0 0 0
400 1 1 0 110.82690243 6.29438179 7.50000000 0 0 0
401 1 1 0 112.24683445 6.28048691 7.50000000 0 0 0
402 1 1 0 112.96883388 7.50323659 7.50000000 0 0 0
403 1 1 0 114.38876580 7.48934171 7.50000000 0 0 0
404 1 1 0 115.08669868 6.25269714 7.50000000 0 0 0
405 1 1 0 116.50663070 6.23880226 7.50000000 0 0 0
406 1 1 0 117.22863013 7.46155194 7.50000000 0 0 0
407 1 1 0 118.64856205 7.44765706 7.50000000 0 0 0
408 1 1 0 119.34649494 6.21101249 7.50000000 0 0 0
409 1 1 0 120.76642695 6.19711760 7.50000000 0 0 0
410 1 1 0 121.48842638 7.41986729 7.50000000 0 0 0
411 1 1 0 122.90835830 7.40597240 7.50000000 0 0 0
412 1 1 0 123.60629119 6.16932784 7.50000000 0 0 0
413 1 1 0 125.02622320 6.15543295 7.50000000 0 0 0
414 1 1 0 0.09626657 9.83757700 7.50000000 0 0 0
415 1 1 0 1.51619859 9.82368211 7.50000000 0 0 0
416 1 1 0 2.23819802 11.04643180 7.50000000 0 0 0
417 1 1 0 3.65812993 11.03253691 7.50000000 0 0 0
418 1 1 0 4.35606282 9.79589235 7.50000000 0 0 0
419 1 1 0 5.77599484 9.78199746 7.50000000 0 0 0
420 1 1 0 6.49799427 11.00474714 7.50000000 0 0 0
421 1 1 0 7.91792618 10.99085226 7.50000000 0 0 0
422 1 1 0 8.61585907 9.75420769 7.50000000 0 0 0
423 1 1 0 10.03579109 9.74031281 7.50000000 0 0 0
424 1 1 0 10.75779052 10.96306249 7.50000000 0 0 0
425 1 1 0 12.17772243 10.94916761 7.50000000 0 0 0
426 1 1 0 12.87565532 9.71252304 7.50000000 0 0 0
427 1 1 0 14.29558734 9.69862816 7.50000000 0 0 0
428 1 1 0 15.01758677 10.92137784 7.50000000 0 0 0
429 1 1 0 16.43751868 10.90748296 7.50000000 0 0 0
430 1 1 0 17.13545157 9.67083839 7.50000000 0 0 0
431 1 1 0 18.55538359 9.65694351 7.50000000 0 0 0
432 1 1 0 19.27738302 10.87969319 7.50000000 0 0 0
433 1 1 0 20.69731493 10.86579831 7.50000000 0 0 0
434 1 1 0 21.39524782 9.62915374 7.50000000 0 0 0
435 1 1 0 22.81517984 9.61525885 7.50000000 0 0 0
436 1 1 0 23.53717927 10.83800854 7.50000000 0 0 0
437 1 1 0 24.95711118 10.82411365 7.50000000 0 0 0
438 1 1 0 25.65504407 9.58746909 7.50000000 0 0 0
439 1 1 0 27.07497609 9.57357420 7.50000000 0 0 0
440 1 1 0 27.79697552 10.79632388 7.50000000 0 0 0
441 1 1 0 29.21690744 10.78242900 7.50000000 0 0 0
442 1 1 0 29.91484032 9.54578443 7.50000000 0 0 0
443 1 1 0 31.33477234 9.53188955 7.50000000 0 0 0
444 1 1 0 32.05677177 10.75463923 7.50000000 0 0 0
445 1 1 0 33.47670369 10.74074435 7.50000000 0 0 0
446 1 1 0 34.17463657 9.50409978 7.50000000 0 0 0
447 1 1 0 35.59456859 9.49020490 7.50000000 0 0 0
448 1 1 0 36.31656802 10.71295458 7.50000000 0 0 0
449 1 1 0 37.73649994 10.69905970 7.50000000 0 0 0
450 1 1 0 38.43443282 9.46241513 7.50000000 0 0 0
451 1 1 0 39.85436484 9.44852025 7.50000000 0 0 0
452 1 1 0 40.57636427 10.67126993 7.50000000 0 0 0
453 1 1 0 41.99629619 10.65737505 7.50000000 0 0 0
454 1 1 0 42.69422907 9.42073048 7.50000000 0 0 0
455 1 1 0 44.11416109 9.40683559 7.50000000 0 0 0
456 1 1 0 44.83616052 10.62958528 7.50000000 0 0 0
457 1 1 0 46.25609244 10.61569039 7.50000000 0 0 0
458 1 1 0 46.95402532 9.37904582 7.50000000 0 0 0
459 1 1 0 48.37395734 9.36515094 7.50000000 0 0 0
460 1 1 0 49.09595677 10.58790062 7.50000000 0 0 0
461 1 1 0 50.51588869 10.57400574 7.50000000 0 0 0
462 1 1 0 51.21382157 9.33736117 7.50000000 0 0 0
463 1 1 0 52.63375359 9.32346629 7.50000000 0 0 0
464 1 1 0 53.35575302 10.54621597 7.50000000 0 0 0
465 1 1 0 54.77568494 10.53232109 7.50000000 0 0 0
466 1 1 0 55.47361782 9.29567652 7.50000000 0 0 0
467 1 1 0 56.89354984 9.28178164 7.50000000 0 0 0
468 1 1 0 57.61554927 10.50453132 7.50000000 0 0 0
469 1 1 0 59.03548119 10.49063644 7.50000000 0 0 0
470 1 1 0 59.73341407 9.25399187 7.50000000 0 0 0
471 1 1 0 61.15334609 9.24009698 7.50000000 0 0 0
472 1 1 0 61.87534552 10.46284667 7.50000000 0 0 0
473 1 1 0 63.29527744 10.44895178 7.50000000 0 0 0
474 1 1 0 63.99321032 9.21230722 7.50000000 0 0 0
475 1 1 0 65.41314234 9.19841233 7.50000000 0 0 0
476 1 1 0 66.13514177 10.42116201 7.50000000 0 0 0
477 1 1 0 67.55507369 10.40726713 7.50000000 0 0 0
478 1 1 0 68.25300657 9.17062256 7.50000000 0 0 0
479 1 1 0 69.67293859 9.15672768 7.50000000 0 0 0
480 1 1 0 70.39493802 10.37947736 7.50000000 0 0 0
481 1 1 0 71.81486994 10.36558248 7.50000000 0 0 0
482 1 1 0 72.51280282 9.12893791 7.50000000 0 0 0
483 1 1 0 73.93273484 9.11504303 7.50000000 0 0 0
484 1 1 0 74.65473427 10.33779271 7.50000000 0 0 0
485 1 1 0 76.07466619 10.32389783 7.50000000 0 0 0
486 1 1 0 76.77259908 9.08725326 7.50000000 0 0 0
487 1 1 0 78.19253109 9.07335838 7.50000000 0 0 0
488 1 1 0 78.91453052 10.29610806 7.50000000 0 0 0
489 1 1 0 80.33446244 10.28221318 7.50000000 0 0 0
490 1 1 0 81.03239533 9.04556861 7.50000000 0 0 0
491 1 1 0 82.45232734 9.03167372 7.50000000 0 0 0
492 1 1 0 83.17432677 10.25442341 7.50000000 0 0 0
493 1 1 0 84.59425869 10.24052852 7.50000000 0 0 0
494 1 1 0 85.29219158 9.00388395 7.50000000 0 0 0
495 1 1 0 86.71212359 8.98998907 7.50000000 0 0 0
496 1 1 0 87.43412302 10.21273875 7.50000000 0 0 0
497 1 1 0 88.85405494 10.19884387 7.50000000 0 0 0
498 1 1 0 89.55198783 8.96219930 7.50000000 0 0 0
499 1 1 0 90.97191984 8.94830442 7.50000000 0 0 0
500 1 1 0 91.69391927 10.17105410 7.50000000 0 0 0
501 1 1 0 93.11385119 10.15715922 7.50000000 0 0 0
502 1 1 0 93.81178408 8.92051465 7.50000000 0 0 0
503 1 1 0 95.23171609 8.90661977 7.50000000 0 0 0
504 1 1 0 95.95371552 10.12936945 7.50000000 0 0 0
505 1 1 0 97.37364744 10.11547457 7.50000000 0 0 0
506 1 1 0 98.07158033 8.87883000 7.50000000 0 0 0
507 1 1 0 99.49151234 8.86493511 7.50000000 0 0 0
508 1 1 0 100.21351177 10.08768480 7.50000000 0 0 0
509 1 1 0 101.63344369 10.07378991 7.50000000 0 0 0
510 1 1 0 102.33137658 8.83714535 7.50000000 0 0 0
511 1 1 0 103.75130859 8.82325046 7.50000000 0 0 0
512 1 1 0 104.47330802 10.04600014 7.50000000 0 0 0
513 1 1 0 105.89323994 10.03210526 7.50000000 0 0 0
514 1 1 0 106.59117283 8.79546069 7.50000000 0 0 0
515 1 1 0 108.01110484 8.78156581 7.50000000 0 0 0
516 1 1 0 108.73310427 10.00431549 7.50000000 0 0 0
517 1 1 0 110.15303619 9.99042061 7.50000000 0 0 0
518 1 1 0 110.85096908 8.75377604 7.50000000 0 0 0
519 1 1 0 112.27090109 8.73988116 7.50000000 0 0 0
520 1 1 0 112.99290052 9.96263084 7.50000000 0 0 0
521 1 1 0 114.41283244 9.94873596 7.50000000 0 0 0
522 1 1 0 115.11076533 8.71209139 7.50000000 0 0 0
523 1 1 0 116.53069734 8.69819651 7.50000000 0 0 0
524 1 1 0 117.25269677 9.92094619 7.50000000 0 0 0
525 1 1 0 118.67262869 9.90705131 7.50000000 0 0 0
526 1 1 0 119.37056158 8.67040674 7.50000000 0 0 0
527 1 1 0 120.79049359 8.65651185 7.50000000 0 0 0
528 1 1 0 121.51249302 9.87926154 7.50000000 0 0 0
529 1 1 0 122.93242494 9.86536665 7.50000000 0 0 0
530 1 1 0 123.63035783 8.62872209 7.50000000 0 0 0
531 1 1 0 125.05028984 8.61482720 7.50000000 0 0 0
532 1 1 0 0.12033321 12.29697125 7.50000000 0 0 0
533 1 1 0 1.54026523 12.28307636 7.50000000 0 0 0
534 1 1 0 2.26226466 13.50582605 7.50000000 0 0 0
535 1 1 0 3.68219658 13.49193116 7.50000000 0 0 0
536 1 1 0 4.38012946 12.25528660 7.50000000 0 0 0
537 1 1 0 5.80006148 12.24139171 7.50000000 0 0 0
538 1 1 0 6.52206091 13.46414139 7.50000000 0 0 0
539 1 1 0 7.94199283 13.45024651 7.50000000 0 0 0
540 1 1 0 8.63992571 12.21360194 7.50000000 0 0 0
541 1 1 0 10.05985773 12.19970706 7.50000000 0 0 0
542 1 1 0 10.78185716 13.42245674 7.50000000 0 0 0
543 1 1 0 12.20178908 13.40856186 7.50000000 0 0 0
544 1 1 0 12.89972196 12.17191729 7.50000000 0 0 0
545 1 1 0 14.31965398 12.15802241 7.50000000 0 0 0
546 1 1 0 15.04165341 13.38077209 7.50000000 0 0 0
547 1 1 0 16.46158533 13.36687721 7.50000000 0 0 0
548 1 1 0 17.15951821 12.13023264 7.50000000 0 0 0
549 1 1 0 18.57945023 12.11633776 7.50000000 0 0 0
550 1 1 0 19.30144966 13.33908744 7.50000000 0 0 0
551 1 1 0 20.72138158 13.32519256 7.50000000 0 0 0
552 1 1 0 21.41931446 12.08854799 7.50000000 0 0 0
553 1 1 0 22.83924648 12.07465310 7.50000000 0 0 0
554 1 1 0 23.56124591 13.29740279 7.50000000 0 0 0
555 1 1 0 24.98117783 13.28350790 7.50000000 0 0 0
556 1 1 0 25.67911071 12.04686333 7.50000000 0 0 0
557 1 1 0 27.09904273 12.03296845 7.50000000 0 0 0
558 1 1 0 27.82104216 13.25571813 7.50000000 0 0 0
559 1 1 0 29.24097408 13.24182325 7.50000000 0 0 0
560 1 1 0 29.93890696 12.00517868 7.50000000 0 0 0
561 1 1 0 31.35883898 11.99128380 7.50000000 0 0 0
562 1 1 0 32.08083841 13.21403348 7.50000000 0 0 0
563 1 1 0 33.50077033 13.20013860 7.50000000 0 0 0
564 1 1 0 34.19870322 11.96349403 7.50000000 0 0 0
565 1 1 0 35.61863523 11.94959915 7.50000000 0 0 0
566 1 1 0 36.34063466 13.17234883 7.50000000 0 0 0
567 1 1 0 37.76056658 13.15845395 7.50000000 0 0 0
568 1 1 0 38.45849947 11.92180938 7.50000000 0 0 0
569 1 1 0 39.87843148 11.90791449 7.50000000 0 0 0
570 1 1 0 40.60043091 13.13066418 7.50000000 0 0 0
571 1 1 0 42.02036283 13.11676929 7.50000000 0 0 0
572 1 1 0 42.71829572 11.88012473 7.50000000 0 0 0
573 1 1 0 44.13822773 11.86622984 7.50000000 0 0 0
574 1 1 0 44.86022716 13.08897952 7.50000000 0 0 0
575 1 1 0 46.28015908 13.07508464 7.50000000 0 0 0
576 1 1 0 46.97809197 11.83844007 7.50000000 0 0 0
577 1 1 0 48.39802398 11.82454519 7.50000000 0 0 0
578 1 1 0 49.12002341 13.04729487 7.50000000 0 0 0
579 1 1 0 50.53995533 13.03339999 7.50000000 0 0 0
580 1 1 0 51.23788822 11.79675542 7.50000000 0 0 0
581 1 1 0 52.65782023 11.78286054 7.50000000 0 0 0
582 1 1 0 53.37981966 13.00561022 7.50000000 0 0 0
583 1 1 0 54.79975158 12.99171534 7.50000000 0 0 0
584 1 1 0 55.49768447 11.75507077 7.50000000 0 0 0
585 1 1 0 56.91761648 11.74117589 7.50000000 0 0 0
586 1 1 0 57.63961591 12.96392557 7.50000000 0 0 0
587 1 1 0 59.05954783 12.95003069 7.50000000 0 0 0
588 1 1 0 59.75748072 11.71338612 7.50000000 0 0 0
589 1 1 0 61.17741273 11.69949123 7.50000000 0 0 0
590 1 1 0 61.89941216 12.92224092 7.50000000 0 0 0
591 1 1 0 63.31934408 12.90834603 7.50000000 0 0 0
592 1 1 0 64.01727697 11.67170147 7.50000000 0 0 0
593 1 1 0 65.43720898 11.65780658 7.50000000 0 0 0
594 1 1 0 66.15920841 12.88055626 7.50000000 0 0 0
595 1 1 0 67.57914033 12.86666138 7.50000000 0 0 0
596 1 1 0 68.27707322 11.63001681 7.50000000 0 0 0