ITEM: TIMESTEP
114
ITEM: NUMBER OF ATOMS
6536
ITEM: BOX BOUNDS pp pp pp
0.0000000000000000e+00 7.0200368299999994e+01
0.0000000000000000e+00 1.2159060500000000e+02
0.0000000000000000e+00 1.5000000000000000e+01
ITEM: ATOMS id type x y z c_csym c_2[1] c_2[2] c_2[3] c_2[4] c_2[5] c_2[6] c_3 
109 1 0.211549 9.82045 2.92282 6.01499 -140684 -158130 9734.47 -31583.1 23612.3 -2625.23 -7.41725 
110 1 0.895359 8.57822 2.91889 6.01597 -170684 -136310 -5174.99 -31339.3 13256.1 -2377.23 -7.41564 
111 1 0.161618 7.3652 2.91446 6.01716 -143634 -158759 5359.81 -27240.4 26812.5 -2981.23 -7.41654 
112 1 0.844546 6.12252 2.90969 6.01398 -168482 -138350 -1949.26 -22805.2 18557.2 -3194.87 -7.41563 
113 1 0.109708 4.9101 2.9046 6.01951 -146052 -158086 1632.36 -16264.8 24730.4 -2185.48 -7.41586 
114 1 0.791545 3.6669 2.90017 6.01644 -162732 -142485 -1026.9 -10506.1 17035.3 -4250.95 -7.41547 
115 1 0.055582 2.45508 2.89613 6.02414 -148624 -155741 -965.184 -4836.41 14874.7 -878.045 -7.4154 
116 1 0.736596 1.21148 2.8939 6.02491 -155630 -148602 -1598.81 -1800.7 7077.7 -4696.87 -7.41529 
117 1 -4.29742e-06 -8.2831e-06 2.89274 6.02999 -152040 -152067 -1849.16 41.2705 0.734405 -1.5347 -7.41525 
209 1 3.04545 9.76062 2.9235 6.01921 -186479 -118023 -4891.74 -32199.1 7282.87 -8144.32 -7.41587 
210 1 2.31285 8.54689 2.91965 6.01297 -161183 -140297 5910.27 -25949.1 24291.6 -3523.2 -7.41679 
211 1 2.99556 7.30398 2.91628 6.01626 -185252 -120554 -1056.45 -25823.5 13559.7 -11103.3 -7.41592 
212 1 2.262 6.09078 2.91099 6.01318 -161667 -142550 2238.11 -16114.9 25308.6 -7081.87 -7.41613 
213 1 2.94383 4.84747 2.90764 6.01504 -178331 -126930 652.961 -13790.5 16171.9 -14564.9 -7.41582 
214 1 2.209 3.63495 2.90202 6.01572 -158960 -146098 -321.19 -2959.34 19427.4 -9822.3 -7.4156 
215 1 2.89007 2.39134 2.90018 6.01978 -166249 -138249 156.866 -2191.75 11518.7 -16870.2 -7.4156 
216 1 2.15406 1.17947 2.89613 6.02031 -154395 -150346 -1373.01 6045.08 6615.53 -11645.8 -7.41536 
308 1 4.46288 9.72995 2.92465 6.00966 -175064 -125421 3876.03 -22523.9 18552.8 -409.129 -7.41677 
309 1 5.14546 8.48689 2.9227 6.01297 -195103 -107318 1548.57 -25665.6 7196.31 -14813.4 -7.41643 
310 1 4.41295 7.27302 2.91842 6.00904 -175742 -128515 585.768 -12705 20582.3 -6225.72 -7.41622 
311 1 5.09485 6.02967 2.91636 6.01404 -189841 -113245 3685.78 -13469.1 11996.4 -19289.9 -7.4164 
312 1 4.36122 4.81639 2.91097 6.01087 -172019 -134345 -1259.56 1978.95 18479.4 -11980 -7.41577 
313 1 5.04247 3.57282 2.90974 6.01733 -178008 -125462 3366.35 609.513 12243.6 -23237.2 -7.41618 
314 1 4.30749 2.36027 2.90457 6.01416 -163177 -143083 -1393.39 15110.6 9906.29 -16754.8 -7.41554 
315 1 4.98852 1.1167 2.90539 6.01638 -161233 -143566 1212.4 9503.34 6345.25 -24344.3 -7.41586 
407 1 7.29469 9.67101 2.92785 6.00985 -197441 -100954 5512.89 -25780 2392.03 -16383.5 -7.417 
408 1 6.56282 8.45673 2.92478 6.00951 -182848 -119803 -3218.64 -9959.34 13612.4 -2401.16 -7.41612 
409 1 7.24498 7.21347 2.92383 6.01078 -193234 -106028 7717.11 -13191.9 7116.13 -19458.4 -7.41706 
410 1 6.51221 5.99964 2.91967 6.01043 -180253 -125699 -4468.11 6056.67 13298.5 -8578.17 -7.41577 
411 1 7.19383 4.75622 2.91904 6.01429 -184477 -116152 7440.13 2709.37 10293.9 -23107.3 -7.41689 
412 1 6.45985 3.54302 2.91439 6.01344 -172252 -135032 -3541.18 22622 8785.46 -14640.2 -7.41563 
413 1 7.14117 2.29958 2.91493 6.01501 -170012 -132789 4671.28 15991.5 9087.46 -25180.7 -7.4165 
414 1 6.40596 1.08706 2.91096 6.0148 -159273 -147073 -790.551 32747 -186.678 -19449 -7.41577 
506 1 8.71207 9.64141 2.92972 6.01166 -183158 -116002 -8298.55 -9649.8 8030.79 199.245 -7.41592 
507 1 9.39466 8.39836 2.92955 6.01065 -190052 -105710 12401.9 -14912.2 4361.52 -18973.1 -7.41768 
508 1 8.66235 7.18425 2.92644 6.01327 -180698 -122656 -9251.48 6757.71 7242.56 -3971.82 -7.41565 
509 1 9.34453 5.9411 2.92624 6.01341 -183550 -113743 12022.2 1933.49 8270.48 -20013.8 -7.41758 
510 1 8.6112 4.72748 2.92268 6.01587 -175480 -130603 -7723.96 25385.9 4934.49 -8865.18 -7.41558 
511 1 9.29303 3.48429 2.92298 6.01503 -173330 -126022 8893.79 18359.4 9904.86 -21079.8 -7.41719 
512 1 8.55859 2.27124 2.91957 6.01799 -165477 -140869 -3816.91 40318.1 -483.891 -13660.6 -7.41579 
513 1 9.24042 1.02819 2.92094 6.00995 -159315 -143056 3570.14 28410.1 7809.43 -20411.9 -7.41661 
3282 2 0.522091 8.60815 6.48096 6.01429 -135503 -164838 7441.04 30897.6 25158.6 2638.13 -7.41689 
3283 2 0.572918 6.15331 6.49026 6.01733 -139035 -164483 3365.98 23025.8 26245.4 1015.98 -7.41618 
3284 2 0.625927 3.69854 6.49982 6.01981 -143358 -161250 155.587 11021 20368.4 -1540.7 -7.4156 
3285 2 0.680869 1.24366 6.5061 6.02482 -148840 -155610 -1599.75 2097.15 7605.78 -3782.14 -7.41529 
3286 2 -8.78029e-06 2.80735e-06 6.50726 6.02995 -152178 -152230 -1850.54 11.7164 0.66038 -1.5971 -7.41525 
3377 2 2.62456 9.88107 6.47617 6.01078 -116345 -182820 7716.86 31135 20409.8 3566.21 -7.41707 
3378 2 1.93974 8.63956 6.48034 6.0104 -144548 -161326 -4467.85 26658.5 14078.3 -7228.07 -7.41577 
3379 2 2.67442 7.4271 6.48364 6.01403 -120741 -182417 3685.8 26325.1 22704 -743.484 -7.4164 
3380 2 1.99051 6.18512 6.48903 6.01092 -145398 -160895 -1259.88 17226.7 19615.2 -10013.7 -7.41577 
3381 2 2.72612 4.97316 6.49237 6.01512 -127860 -177421 652.984 15321.6 20699.6 -6722.8 -7.41582 
3382 2 2.04347 3.73052 6.49798 6.01576 -146814 -158523 -321.459 4190.67 18220.2 -11913.1 -7.41561 
3383 2 2.77986 2.51895 6.49983 6.01646 -138341 -167032 -1027.16 3555.57 12198.3 -12627.8 -7.41547 
3384 2 2.09836 1.27568 6.50387 6.0241 -149760 -154686 -965.472 -5581.69 8197.47 -12442.7 -7.4154 
3385 2 2.83497 0.0641661 6.50281 6.02006 -151896 -152713 -1015.35 -2069.85 -411.327 -16386 -7.41542 
3476 2 4.04233 9.91193 6.47522 6.00953 -126959 -175802 -3218.73 22413.3 8885.57 -10588 -7.41612 
3477 2 4.77713 8.69954 6.4773 6.01296 -107120 -195491 1549.54 25236.1 16426.8 1174.92 -7.41643 
3478 2 4.09214 7.45823 6.48158 6.009 -129330 -174998 585.384 14139.6 15682.8 -14711.5 -7.41622 
3479 2 4.82766 6.24623 6.48372 6.01623 -114311 -191529 -1057.04 15128.3 16395.6 -6191.13 -7.41592 
3480 2 4.14377 5.00434 6.48901 6.01318 -133442 -170774 2238.2 227.467 18787 -18377.2 -7.41613 
3481 2 4.87999 3.79266 6.49031 6.01404 -126130 -180601 -1949.57 1637.77 12045.9 -14473.9 -7.41562 
3482 2 4.19742 2.55006 6.49541 6.01953 -140826 -163190 1631.45 -13377.1 14257.5 -20324 -7.41587 
3483 2 4.93393 1.33845 6.49463 6.01305 -142631 -163500 -1041.3 -8514.64 3304.96 -21235.6 -7.41562 
3484 2 4.25245 0.0952176 6.49798 6.01643 -151688 -153271 -100.933 -19714.7 2926.36 -19754.9 -7.4156 
3575 2 6.88063 9.97081 6.47254 6.01344 -100341 -200440 -2479.34 23582.3 11091.9 3977.76 -7.41628 
3576 2 6.19494 8.72994 6.47535 6.00962 -118422 -182295 3875.99 10225.2 9630.44 -15862 -7.41677 
3577 2 6.93023 7.51776 6.4765 6.01921 -107429 -197346 -4892.09 13540.2 10694.7 -2234.57 -7.41587 
3578 2 6.2454 6.27644 6.48035 6.01298 -123027 -178492 5910.23 -3920.32 15196.8 -19275.4 -7.41679 
3579 2 6.98128 5.06452 6.48111 6.01597 -117853 -189132 -5174.29 -689.948 8687.22 -10291.9 -7.41564 
3580 2 6.29764 3.82256 6.48554 6.01712 -131339 -170823 5359.77 -20162.4 15988.4 -21730.2 -7.41654 
3581 2 7.03389 2.61076 6.4851 6.01106 -132911 -173904 -3190.84 -14278.8 3516.85 -18233.2 -7.4157 
3582 2 6.35147 1.36812 6.489 6.01542 -144256 -159731 2679.96 -31726.4 10117.9 -21966.5 -7.41613 
3583 2 7.08753 0.156112 6.4867 6.01025 -151589 -153585 538.098 -20626.7 -3530.38 -23688.4 -7.41604 
3674 2 8.29848 10.0007 6.47084 6.01007 -113997 -183360 8011.46 8423.69 4611.58 -17057.7 -7.41731 
3675 2 9.03338 8.78827 6.4713 6.02018 -106468 -194724 -9906.46 13473.3 6940.51 1032.97 -7.41573 
3676 2 8.34802 7.54724 6.47374 6.01354 -119469 -178616 10246.9 -5926.36 10096.2 -18126.2 -7.41742 
3677 2 9.08337 6.33497 6.47408 6.0192 -115883 -188534 -9963.34 -1267.91 5159.2 -4443.9 -7.41555 
3678 2 8.39898 5.09344 6.47718 6.01501 -126515 -172456 9735.23 -23360.9 14079.9 -19135.7 -7.41725 
3679 2 9.13478 3.88132 6.47701 6.01288 -127879 -177673 -7363.15 -16903.3 1918.64 -11026.1 -7.41564 
3680 2 8.45149 2.63919 6.48025 6.01237 -137414 -163480 6485.77 -38594.4 13333.3 -19138.9 -7.41681 
3681 2 9.18736 1.427 6.47902 6.00905 -143089 -161579 -2446.85 -27664 -3020.2 -16909.4 -7.41603 
3682 2 8.50502 0.184321 6.48158 6.01469 -151642 -152405 1447.68 -45392 7765.45 -17330.5 -7.41625 
605 1 11.5441 9.58387 2.93463 6.01196 -185754 -108051 17454 -17789.4 5014.74 -21475.5 -7.41821 
606 1 10.8121 8.36961 2.93172 6.01584 -175080 -122753 -14661.2 4852.22 3471.14 -2368.11 -7.41551 
607 1 11.4949 7.12681 2.93175 6.01509 -178355 -116395 16844.6 -1189.24 8383.12 -18795.7 -7.41814 
608 1 10.7619 5.913 2.92877 6.01884 -171427 -130507 -12922.4 23703.8 1322.75 -4442.41 -7.41546 
609 1 11.4444 4.67014 2.92886 6.01509 -171121 -125459 13484.9 16617.3 10978 -17026.8 -7.41779 
610 1 10.7104 3.4568 2.9261 6.02099 -165748 -138228 -8471.61 41276.2 -2211.23 -7278.68 -7.41568 
611 1 11.3927 2.21396 2.92672 6.01105 -161937 -136722 7573.94 30781 10836.7 -15399.4 -7.41719 
612 1 10.6579 1.00105 2.92459 6.01502 -156935 -146112 -1998.5 51891.4 -7320.64 -10380.2 -7.41618 
704 1 12.9616 9.55552 2.93706 6.01625 -169730 -122440 -20266.9 3213.89 3264.27 -5224.92 -7.41547 
705 1 13.6451 8.31306 2.93721 6.01643 -175354 -119956 21950.6 -3671.31 11076.5 -22143.4 -7.41863 
706 1 12.9124 7.0991 2.93388 6.02085 -164002 -132187 -18412.3 20788.9 213.866 -4574.55 -7.41539 
707 1 13.5956 5.8566 2.93379 6.01535 -167379 -128297 18258.1 14013 13727.4 -17158.8 -7.41829 
708 1 12.8619 4.64311 2.93095 6.02173 -160533 -138737 -13807.1 38867 -3096.33 -4663.34 -7.41556 
709 1 13.5447 3.40054 2.93107 6.01029 -160657 -135762 12033.3 30183 14283.1 -13248.7 -7.41771 
710 1 12.8102 2.18743 2.92903 6.0156 -156569 -143472 -6794.03 52746.1 -7370.43 -5796.66 -7.41601 
711 1 13.4928 0.944867 2.92977 6.00884 -153865 -143339 3931.44 39961.4 11831.2 -10158.3 -7.41697 
803 1 15.7948 9.50017 2.94411 6.01533 -178883 -118876 27962.7 -2703.72 14972.3 -29107.2 -7.4192 
804 1 15.0626 8.28586 2.93979 6.01884 -159667 -131263 -24175.4 20881 1926.67 -8947.52 -7.41542 
805 1 15.7464 7.04369 2.93964 6.01304 -167728 -130060 23606.7 14200.1 17924.5 -22205.8 -7.4188 
806 1 15.0131 5.82999 2.93587 6.02102 -154597 -139672 -19402.6 37851.9 -1840.51 -7151.44 -7.41552 
807 1 15.6964 4.58771 2.93567 6.00744 -159830 -136865 16898.4 31075.5 18907 -16141.1 -7.4182 
808 1 14.9622 3.37445 2.9329 6.01472 -152437 -143496 -12204 53118.9 -6331.92 -6179.4 -7.41586 
809 1 15.6452 2.13206 2.93318 6.00543 -154304 -141461 8360.67 43862.9 16674.2 -11551 -7.41746 
810 1 14.9103 0.91906 2.93166 6.0096 -151328 -144627 -3265.42 62132.6 -11357 -6699.78 -7.41646 
902 1 17.2122 9.47395 2.94757 6.01229 -162572 -124935 -30866.5 25840.7 4958.1 -14469.4 -7.41549 
903 1 17.8965 8.23202 2.94756 6.0099 -174525 -126387 30398.1 19235.3 22022.4 -29548.3 -7.41945 
904 1 17.1639 7.01786 2.94251 6.01609 -153474 -137072 -25502.6 41813.7 1081.88 -12670.3 -7.41556 
905 1 17.8478 5.77585 2.9422 6.00311 -163511 -135895 22796 36308.3 24060.4 -22795.1 -7.41878 
906 1 17.1139 4.5623 2.93803 6.01189 -149426 -143247 -17978.3 57237.7 -3726.5 -10818.3 -7.4158 
907 1 17.7973 3.32012 2.93803 5.99983 -155905 -140828 13547 51310.4 22494 -17094.7 -7.41799 
908 1 17.0627 2.10695 2.93529 6.00642 -148835 -144239 -8732.1 68765 -9618.74 -9944.38 -7.41628 
909 1 17.7456 0.864624 2.93615 5.99993 -150648 -143124 3439.33 59759.4 17051.3 -13161.4 -7.41719 
1001 1 20.0456 9.42243 2.95732 6.00714 -186537 -116753 39262.5 28363.8 24359.8 -35442.8 -7.42034 
1002 1 19.314 8.20753 2.95138 6.01082 -159337 -129277 -32869.2 50714.7 3964.22 -17592.2 -7.41559 
1003 1 19.9983 6.96573 2.95121 5.99843 -172367 -129585 30478.1 46217.7 28219 -29759.9 -7.41956 
1004 1 19.2653 5.75163 2.94563 6.00822 -151394 -139185 -24446.4 66772.1 -491.592 -16573.6 -7.4158 
1005 1 19.949 4.50966 2.94546 5.99297 -161372 -137587 20086.1 63206.9 28367.9 -24266.9 -7.41867 
1006 1 19.2148 3.29614 2.94109 6.00158 -148146 -143142 -14656.4 80309.9 -6709.47 -15516 -7.41618 
1007 1 19.898 2.05398 2.94164 5.99187 -153582 -141482 9003.25 75426.1 23683.8 -19904 -7.41778 
1008 1 19.1631 0.840755 2.93906 5.99786 -148035 -142714 -3954.64 87729.8 -14147.5 -15552.4 -7.41677 
3773 2 11.1369 10.0582 6.4669 6.01971 -107232 -189309 -15371.2 15413.6 6753.77 560.166 -7.41562 
3774 2 10.4512 8.81734 6.4688 6.01379 -121178 -174753 14859.9 -5477.46 6819.7 -19020.1 -7.41796 
3775 2 11.1859 7.60467 6.46881 6.02156 -117769 -181562 -15344 454.318 3992.21 -1470.47 -7.41544 
3776 2 10.5011 6.36333 6.47099 6.0156 -127919 -168076 14435 -22808.3 11458.3 -17126.3 -7.41787 
3777 2 11.2363 5.1508 6.47098 6.01593 -127644 -173723 -12568.6 -16136.2 996.053 -4965.4 -7.41551 
3778 2 10.5524 3.90897 6.47339 6.01112 -135776 -161523 10980 -39890.1 13774.6 -15308.5 -7.41747 
3779 2 11.2879 2.69651 6.47297 6.01146 -138821 -163146 -7106.14 -30025.3 -3118.31 -9171.84 -7.41587 
3780 2 10.6049 1.45419 6.47516 6.01064 -145981 -154076 5052.57 -51168 12065.2 -13142.6 -7.41684 
3781 2 11.3403 0.241611 6.47394 6.00916 -150789 -150134 147.636 -35898.1 -7698.81 -12890.3 -7.41649 
3872 2 12.5547 10.087 6.46379 6.01183 -123459 -173122 19792.3 -4134.5 7189.76 -23796.4 -7.41845 
3873 2 13.2888 8.8739 6.4636 6.02161 -118182 -175528 -20929 2773.24 5786.01 -3288.76 -7.41542 
3874 2 12.6036 7.63273 6.46579 6.017 -132373 -162862 19308.4 -20890.2 11023.7 -19034.6 -7.41838 
3875 2 13.3381 6.41977 6.46582 6.01791 -128865 -166580 -18072.8 -13985.2 2283.33 -3653.8 -7.41543 
3876 2 12.6539 5.17809 6.46802 6.01242 -138625 -155934 15855.8 -38133.7 14161.7 -14643.8 -7.41804 
3877 2 13.3888 3.96527 6.4681 6.01327 -137885 -159188 -12509.8 -29769.1 -2017.02 -5156.98 -7.41571 
3878 2 12.7054 2.72316 6.47013 6.00948 -144853 -151206 9603.06 -52098.6 14577.9 -10911.5 -7.41743 
3879 2 13.4406 1.51041 6.46983 6.0099 -146248 -151485 -4767.3 -39722.7 -7149.48 -7466.7 -7.41625 
3880 2 12.7578 0.267985 6.47133 6.01053 -151162 -147309 1537.43 -57828.2 11836.6 -7932.13 -7.41669 
3971 2 15.3924 10.1423 6.45683 6.0163 -113171 -176203 -27041.7 3388.97 9130.18 -8365.8 -7.41547 
3972 2 14.7065 8.90152 6.45978 6.0168 -134188 -162525 24721 -20422.1 13731.4 -24904.7 -7.41889 
3973 2 15.4404 7.68818 6.45986 6.01621 -126760 -163167 -23839.2 -13257.1 5445.5 -7130.06 -7.41545 
3974 2 14.7558 6.44671 6.46258 6.01381 -142156 -152245 21064.3 -37143.5 16568.5 -18666.7 -7.41855 
3975 2 15.4901 5.23354 6.46293 6.01277 -136588 -154913 -18154 -30071.7 863.211 -6492.26 -7.41563 
3976 2 14.8064 3.99157 6.4654 6.00948 -146757 -146954 14696.9 -52351.9 17504 -13157.9 -7.41796 
3977 2 15.5412 2.77857 6.46567 6.00893 -143896 -149438 -10320 -43183.7 -5039.91 -6901.52 -7.41605 
3978 2 14.8581 1.53628 6.46761 6.00773 -149585 -145033 6187.82 -61803.2 15597.9 -9039.38 -7.41722 
3979 2 15.5932 0.32336 6.46722 6.0063 -149452 -145359 -1103.72 -48494.1 -11493.8 -8532.54 -7.4167 
4070 2 16.8101 10.1691 6.45188 6.0147 -129778 -170064 31520.4 -23250.3 18288.7 -31927.7 -7.41955 
4071 2 17.5436 8.95543 6.45216 6.01012 -118742 -167623 -30523.2 -15835.6 8719.81 -12479.9 -7.41552 
4072 2 16.8581 7.71442 6.45571 6.0129 -141476 -154862 27119.1 -39570.9 21062.3 -25568.9 -7.41913 
4073 2 17.592 6.50091 6.45628 6.0076 -131391 -155544 -24245.1 -33306.7 4537.73 -11404.6 -7.41565 
4074 2 16.9077 5.25924 6.45958 6.00827 -147553 -145842 20355.6 -55438.6 22012.1 -19352.2 -7.41852 
4075 2 17.6422 4.04595 6.46019 6.00432 -140083 -148405 -16138.6 -48999.7 -1525.07 -10743.4 -7.41596 
4076 2 16.9587 2.80383 6.46299 6.00474 -149804 -142414 11547.5 -67635.2 20182 -14199 -7.41776 
4077 2 17.6936 1.59074 6.46306 6.00134 -146119 -144908 -6705.85 -58931.5 -9272.46 -11147.1 -7.41648 
4078 2 17.0107 0.348408 6.465 6.00393 -149653 -142851 1474.55 -72701.1 15642.5 -10950.7 -7.41696 
4170 2 18.9613 8.98042 6.44714 6.00893 -134212 -164452 34798.2 -45602.2 25936.4 -31859.8 -7.4199 
4171 2 19.6948 7.76662 6.448 5.99999 -121222 -162990 -31585.5 -39850.5 7259.61 -16429.8 -7.41566 
4172 2 19.0096 6.5255 6.45201 6.00448 -143792 -150636 27091.6 -62323 27472.4 -26542.4 -7.4192 
4173 2 19.7437 5.31193 6.4529 5.99678 -133073 -152154 -22572.1 -58035.1 2114.06 -16193.1 -7.41594 
4174 2 19.0597 4.07017 6.45661 6.00018 -148139 -143157 17678 -77147.6 25948.1 -21435.4 -7.41838 
4175 2 19.7944 2.85683 6.45702 5.9937 -141460 -146190 -12625.9 -72466.6 -5735.73 -16196 -7.41637 
4176 2 19.1111 1.61468 6.45997 5.99755 -148967 -141482 7082.16 -86633.5 21169.1 -17519 -7.41753 
4177 2 19.8461 0.4015 6.45918 5.99166 -147535 -143469 -2036.82 -78923.8 -15223.1 -17234.6 -7.41699 
1100 1 21.463 9.39966 2.96155 6.00654 -170589 -117510 -42207.5 61901 5227.25 -19291.2 -7.41549 
1101 1 22.1478 8.15806 2.96174 5.99488 -184106 -118877 40143.2 58324.2 30070 -33800.8 -7.42055 
1102 1 21.4158 6.94317 2.95544 6.0049 -159109 -131038 -32312.7 79568.2 1842.53 -20181.9 -7.41575 
1103 1 22.0999 5.70143 2.95525 5.98669 -170562 -130243 28371.2 77840.8 32803.6 -29769.9 -7.41955 
1104 1 21.3665 4.48731 2.94952 5.99665 -151825 -139043 -21359.5 95690.2 -3671.7 -20220.3 -7.4161 
1105 1 22.05 3.24536 2.94971 5.98274 -159349 -137360 15939.1 94131.7 30257.8 -26017.7 -7.41852 
1106 1 21.3155 2.03176 2.9455 5.99088 -148543 -141641 -9917.78 107018 -11488.7 -20272.7 -7.41662 
1107 1 21.9986 0.789654 2.94679 5.98157 -150771 -141697 3716.93 102582 22417.4 -23221.6 -7.41759 
1199 1 24.2959 9.35314 2.97205 5.99309 -194638 -106804 51346.5 69413 29248.8 -33475.3 -7.42169 
1200 1 23.5652 8.13736 2.96597 6.00365 -169781 -120356 -42040.5 91875.9 2273.77 -20126.2 -7.41556 
1201 1 24.2498 6.89587 2.96591 5.9823 -180273 -119957 38257.2 91819.4 34685.3 -31398.5 -7.42059 
1202 1 23.5174 5.68098 2.95968 5.99317 -159654 -131966 -29415.7 111586 -1679 -21796.3 -7.41597 
1203 1 24.2013 4.43929 2.95951 5.97515 -167229 -130330 24310.2 112646 35287.7 -29042 -7.41943 
1204 1 23.4675 3.22512 2.95415 5.98478 -152536 -138430 -16685.7 127431 -8590.67 -22685.1 -7.41647 
1205 1 24.1508 1.98323 2.95473 5.97294 -156111 -137720 10644 126905 29614.2 -26913.1 -7.41832 
1206 1 23.4161 0.769504 2.95115 5.97991 -148349 -140741 -4137.78 135297 -17839.7 -23674 -7.41713 
1298 1 25.7133 9.3342 2.97543 6.00334 -179276 -110740 -53337 100073 787.794 -16851.3 -7.4152 
1299 1 26.3986 8.09301 2.97562 5.98047 -187283 -110495 49214.2 101805 33820.8 -28790.7 -7.42173 
1300 1 25.6672 6.87732 2.96981 5.99173 -168220 -124100 -39065.7 123562 -1327.77 -19824.8 -7.41571 
1301 1 26.3517 5.63594 2.9694 5.97019 -174401 -121981 33854.2 127074 37743 -27934.8 -7.42046 
1302 1 25.6187 4.42109 2.96372 5.98097 -158917 -133377 -24642.9 144789 -6333.2 -21723 -7.41625 
1303 1 26.3025 3.17948 2.96353 5.9648 -162346 -131553 18656.6 147676 35397.5 -26929 -7.41918 
1304 1 25.5683 1.96524 2.95904 5.97309 -151896 -138486 -10874.7 158900 -14754.9 -23055.9 -7.41691 
1305 1 26.2517 0.723517 2.95994 5.96358 -151754 -139702 4382.75 157824 26766 -25956.9 -7.41804 
1397 1 28.5463 9.29239 2.98304 5.98084 -188316 -105327 60526.8 105963 30847.7 -22971.6 -7.42287 
1398 1 27.8159 8.07603 2.97824 5.99231 -173970 -118236 -49897.4 128858 -2499.11 -15293.6 -7.41532 
1399 1 28.5012 6.83503 2.97776 5.96841 -177833 -115659 44129.2 134697 37474 -23174.4 -7.42154 
1400 1 27.7691 5.6195 2.97256 5.97977 -164826 -128783 -33844.7 155032 -5202.93 -17791.6 -7.41594 
1401 1 28.4535 4.37825 2.97176 5.95962 -166733 -125498 27530.4 161184 38809.7 -23193.3 -7.42013 
1402 1 27.72 3.16346 2.96707 5.96929 -156584 -135652 -18556.5 176059 -11705.1 -19467.4 -7.41661 
1403 1 28.4037 1.92199 2.96689 5.95688 -156514 -134467 11873.8 179151 33181.3 -23105.7 -7.41879 
1404 1 27.6692 0.707688 2.96368 5.96263 -149901 -139265 -4251.86 186020 -21446.8 -20923.6 -7.41745 
1496 1 29.9637 9.27647 2.98406 5.99313 -173581 -117222 -61057.9 126366 -4574.48 -9687.38 -7.41485 
1498 1 29.9186 6.81988 2.97939 5.98078 -166820 -126878 -43884.3 156455 -5237.16 -12094.1 -7.41555 
1500 1 29.871 4.36374 2.97394 5.96851 -159599 -133954 -27114.4 183645 -9245.87 -13770.1 -7.41626 
1502 1 29.8212 1.90789 2.96952 5.95923 -153051 -137792 -11635.8 201709 -17515.4 -15067 -7.41708 
4269 2 21.799 9.02995 6.43899 5.99295 -108332 -175290 -40921.6 -48249.5 7771.06 -18769.6 -7.41555 
4270 2 21.1125 7.78962 6.44316 5.99846 -134796 -160734 35468.9 -71507 32073.9 -31493.4 -7.4201 
4271 2 21.8463 6.57576 6.44438 5.98886 -122926 -160974 -30406.5 -68893.4 4348.64 -20115.6 -7.41587 
4272 2 21.1613 5.33459 6.44855 5.99374 -142867 -148704 24953.4 -89302.8 31810.5 -27680.8 -7.41917 
4273 2 21.8957 4.12097 6.44933 5.98504 -134164 -151157 -19277.4 -87702.9 -2187.2 -20833.4 -7.41628 
4274 2 21.2119 2.87921 6.45306 5.98996 -146471 -142714 13566.3 -103257 27642.2 -24005.8 -7.41821 
4275 2 21.9468 1.6658 6.45271 5.98219 -142933 -145442 -7963.37 -100257 -11867.5 -21616.4 -7.41684 
4276 2 21.2636 0.423721 6.45538 5.98866 -147503 -141568 1802.76 -109883 20231.9 -21384.3 -7.41733 
4368 2 23.2168 9.05114 6.43419 5.9919 -123080 -172630 45627 -80059.5 34126.6 -32477.3 -7.42119 
4369 2 23.9502 7.83696 6.43576 5.98318 -112270 -171781 -40144 -78966.3 4327.3 -20735.4 -7.41565 
4370 2 23.264 6.59656 6.43978 5.98656 -134251 -157369 33697.8 -100855 36040.9 -30613 -7.42016 
4371 2 23.998 5.38262 6.44096 5.97787 -125825 -159242 -27311 -101973 62.5223 -22820 -7.41612 
4372 2 23.3133 4.14144 6.44492 5.98178 -141188 -147081 21102.3 -119850 33730.6 -28053.7 -7.41905 
4373 2 24.048 2.92774 6.44514 5.97372 -136967 -150019 -14712.4 -120834 -8161.39 -24131.4 -7.41667 
4374 2 23.3643 1.68602 6.44839 5.97907 -145244 -142383 8421.79 -132551 27118.2 -25489.6 -7.41801 
4375 2 24.0993 0.472431 6.44692 5.97167 -146507 -143512 -2269.23 -130097 -19259.5 -25315.3 -7.41739 
4467 2 26.0555 9.09555 6.42806 5.98142 -104370 -180201 -51523.1 -86017.8 2228.54 -18068 -7.41526 
4468 2 25.3679 7.85592 6.43142 5.98009 -125141 -165609 43911.2 -108866 37364.5 -29544.5 -7.42128 
4469 2 26.1015 6.64161 6.43298 5.97432 -118598 -167201 -36997.6 -112474 327.031 -21421.7 -7.41582 
4470 2 25.4157 5.40112 6.43664 5.9745 -134625 -152857 29855.5 -132609 37893.7 -28457.9 -7.42006 
4471 2 26.15 4.18707 6.43748 5.96823 -130825 -156086 -22699.9 -137196 -5293.93 -23602.7 -7.41642 
4472 2 25.4656 2.94587 6.44084 5.9703 -141450 -144953 15936.6 -151812 33460.7 -26561.3 -7.41884 
4473 2 26.2004 1.732 6.44028 5.96424 -141562 -147313 -9123.89 -153974 -15201.3 -24954.7 -7.41713 
4474 2 25.5168 0.490384 6.4426 5.96947 -146569 -141170 2455.46 -161614 24852 -24584.7 -7.41776 
4566 2 27.4733 9.11301 6.4242 5.97624 -118786 -169768 55208.9 -111335 35548.8 -25149.2 -7.42246 
4567 2 28.2062 7.89826 6.42603 5.97517 -115136 -171264 -47994.8 -117486 -1220.15 -17288.3 -7.41539 
4568 2 27.5192 6.65841 6.42907 5.969 -129191 -156944 39813.7 -138806 39175.9 -25332.9 -7.42116 
4569 2 28.253 5.44394 6.43046 5.9671 -127031 -160792 -32012 -146764 -3985.59 -20118.9 -7.41606 
4570 2 27.5676 4.20331 6.43359 5.96377 -137255 -147539 24451.9 -164194 37972.8 -24346.4 -7.41979 
4571 2 28.3021 2.9891 6.43399 5.96074 -137483 -151347 -16973.7 -170721 -11358.8 -21852.1 -7.41679 
4572 2 27.6179 1.7479 6.43645 5.9609 -143742 -142183 9821.17 -181552 31409.5 -22633.6 -7.41851 
4573 2 28.3528 0.533776 6.43518 5.95757 -147068 -142918 -2698.68 -182818 -22470.7 -22749.9 -7.41767 
4666 2 29.624 7.91384 6.42258 5.96676 -127648 -156895 50679.4 -137623 37529.5 -19611 -7.42229 
4668 2 29.6707 5.45876 6.42709 5.9595 -135414 -148117 33977.6 -167682 39895.7 -19412.9 -7.42084 
4670 2 29.7197 3.00336 6.4308 5.95555 -141801 -142607 18022.4 -192207 36524.4 -18170.7 -7.41938 
4672 2 29.7703 0.547791 6.43222 5.9547 -147387 -139982 3048.13 -204942 27965.6 -16517.2 -7.4181 
1497 1 30.6499 8.03593 2.98365 5.96919 -175160 -114201 54569.4 134730 35082.4 -16080.8 -7.42259 
1499 1 30.6038 5.57904 2.97823 5.95808 -167348 -122084 36933 165652 39652.5 -16651.4 -7.42111 
1501 1 30.5552 3.1226 2.9729 5.95194 -159104 -130056 20030.3 190832 37649.5 -17263.3 -7.41962 
1503 1 30.505 0.666607 2.9695 5.95253 -151430 -138149 4404.72 203094 29102.6 -17686.6 -7.41829 
1595 1 32.7982 9.2378 2.98689 5.9717 -166217 -119199 64504.1 127876 31529.5 -8054.54 -7.42352 
1596 1 32.0673 8.02148 2.98365 5.98136 -162554 -129486 -54081.4 149007 -6063.15 -5951.51 -7.41511 
1597 1 32.7535 6.78111 2.98238 5.95938 -162644 -123476 46416.3 161088 38389.4 -8618.87 -7.42204 
1598 1 32.0213 5.56545 2.97884 5.96926 -158681 -135049 -36219.1 180669 -7659.53 -7127.6 -7.41587 
1599 1 32.7063 4.32469 2.97723 5.95082 -157962 -128593 28580.5 191573 39877.4 -9475.32 -7.42047 
1600 1 31.9727 3.10964 2.9741 5.95917 -154346 -138345 -19559.5 206184 -13661.6 -8014.57 -7.41668 
1601 1 32.6569 1.86859 2.9731 5.9483 -153241 -134786 12010.1 212442 34393.1 -10464.4 -7.41899 
1602 1 31.9225 0.653941 2.97123 5.95213 -150175 -139131 -4172.01 218304 -23542.4 -9032.24 -7.41764 
1694 1 34.2157 9.22345 2.98551 5.98291 -151952 -137278 -63677.8 134305 -6992.35 -462.429 -7.41468 
1695 1 34.9029 7.9836 2.98429 5.96292 -152840 -130574 55409.6 149088 35851.4 -273.753 -7.42287 
1696 1 34.171 6.76779 2.98151 5.97067 -152358 -140357 -45379.8 168163 -6832.24 -606.855 -7.41547 
1697 1 34.857 5.52746 2.97963 5.9528 -152532 -131758 37153.9 182536 40109.1 -879.524 -7.4213 
1698 1 34.1238 4.3122 2.97696 5.95991 -151584 -141522 -27777.2 198970 -10344.1 -757.406 -7.41627 
1699 1 34.8086 3.07144 2.97525 5.94766 -151222 -134166 19872.8 209862 37946.4 -2012.61 -7.41972 
1700 1 34.0744 1.85662 2.97347 5.95266 -150436 -140635 -11657.7 219777 -18656.7 -1133.8 -7.41717 
1701 1 34.7585 0.615604 2.97281 5.9492 -149993 -138140 3908.86 223590 29557.4 -3204.09 -7.41832 
1793 1 37.0522 9.18572 2.98447 5.96823 -139381 -142972 63261.9 132090 32931.1 7525.51 -7.4235 
1794 1 36.3205 7.96994 2.98225 5.97359 -140547 -149445 -53990.2 148281 -6258.69 4938.13 -7.41509 
1795 1 37.0074 6.73007 2.98029 5.95746 -143266 -139404 45277.3 165628 38949.1 7551.38 -7.422 
1796 1 36.2745 5.51477 2.97808 5.96258 -144253 -147826 -35946.4 181745 -7675.59 5875.93 -7.41589 
1797 1 36.9601 4.27433 2.9759 5.95043 -146014 -137616 27684.7 196510 39739 6720.73 -7.42042 
1798 1 36.2261 3.05945 2.97429 5.95403 -146905 -144809 -19204.1 208876 -13823.4 6344.71 -7.41673 
1799 1 36.9106 1.81858 2.97278 5.94925 -147929 -137864 11337.5 217823 34025 5333.29 -7.41893 
1800 1 36.1761 0.60394 2.97249 5.94989 -149147 -140406 -3669.19 222246 -24102.9 6168.15 -7.41774 
1892 1 38.4699 9.17119 2.98168 5.97771 -125076 -162010 -61326.5 123814 -5233.16 8923.46 -7.41479 
1893 1 39.1578 7.93178 2.97971 5.96434 -132228 -151127 52380 143596 37105 15091.2 -7.42253 
1894 1 38.425 6.71658 2.97777 5.96721 -133034 -156940 -43588.5 156998 -5373.99 11209.4 -7.41556 
1895 1 39.1114 5.47648 2.9753 5.95619 -138493 -144539 35063.2 175195 40070 14865.9 -7.42102 
1896 1 38.3776 4.26166 2.97381 5.95815 -139812 -151230 -26549.3 187702 -9347.34 12708.1 -7.41635 
1897 1 39.0626 3.02096 2.97157 5.95276 -143553 -140850 18607.3 201074 37086.3 13666.1 -7.41952 
1898 1 38.3281 1.80641 2.97119 5.95241 -145525 -144780 -10866 208422 -18234.1 13392.4 -7.41723 
1899 1 39.0122 0.565328 2.97003 5.95172 -147960 -139276 3253.85 214341 28604.8 12100 -7.41818 
4665 2 30.3119 9.15321 6.42032 5.97768 -117300 -169051 -59538.8 -116636 -3778.25 -11761.3 -7.41488 
4667 2 30.357 6.69888 6.42437 5.96799 -127400 -161458 -42339.9 -148678 -4251.56 -14651.2 -7.41562 
4669 2 30.4046 4.24413 6.42833 5.95967 -136330 -153638 -25778.6 -178359 -8572.16 -16558.4 -7.41637 
4671 2 30.4543 1.78896 6.43082 5.95449 -144144 -146030 -10467.7 -198518 -17736.7 -17534.1 -7.41723 
4764 2 31.7297 9.16819 6.41724 5.9687 -131642 -151211 61857.3 -129662 33629.2 -12441.9 -7.42334 
4765 2 32.4617 7.95267 6.41929 5.97254 -132813 -156312 -53080 -143568 -5511.51 -8469.81 -7.41514 
4766 2 31.7747 6.71289 6.42146 5.95879 -137733 -144950 44272.6 -162282 39149.5 -12677.3 -7.42187 
4767 2 32.5078 5.49778 6.42337 5.96221 -139027 -152070 -35310.7 -176610 -7118.62 -10068.9 -7.41593 
4768 2 31.8222 4.25736 6.42573 5.95242 -142586 -140756 27050.6 -192354 39520.1 -11902.2 -7.42032 
4769 2 32.5563 3.04262 6.42694 5.95423 -144132 -147117 -18807.5 -203551 -13489 -10968.1 -7.41676 
4770 2 31.8718 1.80172 6.42862 5.95055 -146475 -139309 11002.6 -213155 33628.3 -10451.3 -7.41886 
4771 2 32.6064 0.587172 6.42844 5.95058 -148741 -141202 -3433.27 -216946 -23972 -11089.2 -7.41774 
4863 2 34.5669 9.20615 6.41533 5.98042 -142773 -145507 -63418.2 -132769 -6872.8 -2734.99 -7.41468 
4864 2 33.8794 7.96649 6.4168 5.96243 -145105 -137447 54781 -149417 36213.5 -5037.63 -7.42282 
4865 2 34.6115 6.75086 6.41922 5.96865 -145867 -145942 -45125.5 -166889 -6684.1 -3452.14 -7.41548 
4866 2 33.9254 5.51065 6.42129 5.95294 -147259 -135982 36676.3 -182725 40142.3 -4563.35 -7.42125 
4867 2 34.6587 4.2955 6.4235 5.95832 -147757 -144789 -27563.9 -198135 -10241.1 -3886.34 -7.41629 
4868 2 33.9738 3.0548 6.42538 5.94823 -148400 -136426 19550.2 -209920 37776.3 -3389.81 -7.41969 
4869 2 34.7081 1.84003 6.42665 5.95149 -148909 -142156 -11472 -219193 -18687.7 -3875.05 -7.4172 
4870 2 34.0239 0.599039 6.42745 5.94907 -149450 -138537 3692.53 -223797 29387.9 -2043.43 -7.4183 
4962 2 35.9845 9.22037 6.41336 5.96982 -157054 -126467 64627.7 -131240 31872.5 2801.76 -7.42359 
4963 2 36.7155 8.00418 6.41617 5.97813 -156028 -135528 -54511.7 -151082 -6538.09 2365.06 -7.41508 
4964 2 36.0291 6.76401 6.41769 5.95789 -156161 -128287 46381.4 -165006 38569.3 3218.97 -7.42209 
4965 2 36.7615 5.54842 6.42073 5.96623 -154508 -139006 -36417.5 -183780 -7949.07 2857.23 -7.41587 
4966 2 36.0762 4.3078 6.42255 5.94961 -154040 -131257 28472.5 -196185 39921.9 4120.82 -7.4205 
4967 2 36.8099 3.09276 6.42514 5.95679 -152269 -140283 -19589.8 -210227 -13911.4 3308.21 -7.4167 
4968 2 36.1256 1.85181 6.42633 5.94761 -151534 -135641 11856.8 -217427 34412.1 5295.41 -7.419 
4969 2 36.8601 0.637118 6.42767 5.95068 -149978 -139413 -4048.05 -222892 -23886.2 4067.01 -7.41768 
5061 2 38.8196 9.25845 6.4147 5.9896 -167833 -122723 -62513.2 -131132 -5816.2 6738 -7.41476 
5062 2 38.133 8.01816 6.41538 5.96644 -168482 -118639 55335.4 -141693 35316.2 10949.5 -7.42275 