(written by TR)

47528	atoms
2	atom types
0	189.303279	xlo xhi
0	327.882897	ylo yhi
0	18.4	zlo zhi


Masses

1	12
2	12

Atoms

1 1 1 0 0.70100526 326.65032549 7.50000000 0 0 0
2 1 1 0 0.68507332 324.19437716 7.50000000 0 0 0
3 1 1 0 0.66914138 321.73842884 7.50000000 0 0 0
4 1 1 0 0.65320944 319.28248051 7.50000000 0 0 0
5 1 1 0 0.63727751 316.82653219 7.50000000 0 0 0
6 1 1 0 0.62134557 314.37058386 7.50000000 0 0 0
7 1 1 0 0.60541363 311.91463554 7.50000000 0 0 0
8 1 1 0 0.58948169 309.45868721 7.50000000 0 0 0
9 1 1 0 0.57354976 307.00273889 7.50000000 0 0 0
10 1 1 0 0.55761782 304.54679057 7.50000000 0 0 0
11 1 1 0 0.54168588 302.09084224 7.50000000 0 0 0
12 1 1 0 0.52575394 299.63489392 7.50000000 0 0 0
13 1 1 0 0.50982201 297.17894559 7.50000000 0 0 0
14 1 1 0 0.49389007 294.72299727 7.50000000 0 0 0
15 1 1 0 0.47795813 292.26704894 7.50000000 0 0 0
16 1 1 0 0.46202620 289.81110062 7.50000000 0 0 0
17 1 1 0 0.44609426 287.35515229 7.50000000 0 0 0
18 1 1 0 0.43016232 284.89920397 7.50000000 0 0 0
19 1 1 0 0.41423038 282.44325564 7.50000000 0 0 0
20 1 1 0 0.39829845 279.98730732 7.50000000 0 0 0
21 1 1 0 0.38236651 277.53135899 7.50000000 0 0 0
22 1 1 0 0.36643457 275.07541067 7.50000000 0 0 0
23 1 1 0 0.35050263 272.61946234 7.50000000 0 0 0
24 1 1 0 0.33457070 270.16351402 7.50000000 0 0 0
25 1 1 0 0.31863876 267.70756570 7.50000000 0 0 0
26 1 1 0 0.30270682 265.25161737 7.50000000 0 0 0
27 1 1 0 0.28677488 262.79566905 7.50000000 0 0 0
28 1 1 0 0.27084295 260.33972072 7.50000000 0 0 0
29 1 1 0 0.25491101 257.88377240 7.50000000 0 0 0
30 1 1 0 0.23897907 255.42782407 7.50000000 0 0 0
31 1 1 0 0.22304713 252.97187575 7.50000000 0 0 0
32 1 1 0 0.20711520 250.51592742 7.50000000 0 0 0
33 1 1 0 0.19118326 248.05997910 7.50000000 0 0 0
34 1 1 0 0.17525132 245.60403077 7.50000000 0 0 0
35 1 1 0 0.15931938 243.14808245 7.50000000 0 0 0
36 1 1 0 0.14338745 240.69213412 7.50000000 0 0 0
37 1 1 0 0.12745551 238.23618580 7.50000000 0 0 0
38 1 1 0 0.11152357 235.78023748 7.50000000 0 0 0
39 1 1 0 0.09559163 233.32428915 7.50000000 0 0 0
40 1 1 0 0.07965970 230.86834083 7.50000000 0 0 0
41 1 1 0 0.06372776 228.41239250 7.50000000 0 0 0
42 1 1 0 0.04779582 225.95644418 7.50000000 0 0 0
43 1 1 0 0.03186388 223.50049585 7.50000000 0 0 0
44 1 1 0 0.01593195 221.04454753 7.50000000 0 0 0
45 1 1 0 0.00000001 218.58859920 7.50000000 0 0 0
46 1 1 0 2.83588487 327.86450219 7.50000000 0 0 0
47 1 1 0 2.11894768 326.64112718 7.50000000 0 0 0
48 1 1 0 2.81995293 325.40855386 7.50000000 0 0 0
49 1 1 0 2.10301575 324.18517885 7.50000000 0 0 0
50 1 1 0 2.80402099 322.95260554 7.50000000 0 0 0
51 1 1 0 2.08708381 321.72923053 7.50000000 0 0 0
52 1 1 0 2.78808905 320.49665721 7.50000000 0 0 0
53 1 1 0 2.07115187 319.27328220 7.50000000 0 0 0
54 1 1 0 2.77215712 318.04070889 7.50000000 0 0 0
55 1 1 0 2.05521993 316.81733388 7.50000000 0 0 0
56 1 1 0 2.75622518 315.58476056 7.50000000 0 0 0
57 1 1 0 2.03928800 314.36138556 7.50000000 0 0 0
58 1 1 0 2.74029324 313.12881224 7.50000000 0 0 0
59 1 1 0 2.02335606 311.90543723 7.50000000 0 0 0
60 1 1 0 2.72436130 310.67286391 7.50000000 0 0 0
61 1 1 0 2.00742412 309.44948891 7.50000000 0 0 0
62 1 1 0 2.70842937 308.21691559 7.50000000 0 0 0
63 1 1 0 1.99149218 306.99354058 7.50000000 0 0 0
64 1 1 0 2.69249743 305.76096727 7.50000000 0 0 0
65 1 1 0 1.97556025 304.53759226 7.50000000 0 0 0
66 1 1 0 2.67656549 303.30501894 7.50000000 0 0 0
67 1 1 0 1.95962831 302.08164393 7.50000000 0 0 0
68 1 1 0 2.66063355 300.84907062 7.50000000 0 0 0
69 1 1 0 1.94369637 299.62569561 7.50000000 0 0 0
70 1 1 0 2.64470162 298.39312229 7.50000000 0 0 0
71 1 1 0 1.92776443 297.16974728 7.50000000 0 0 0
72 1 1 0 2.62876968 295.93717397 7.50000000 0 0 0
73 1 1 0 1.91183250 294.71379896 7.50000000 0 0 0
74 1 1 0 2.61283774 293.48122564 7.50000000 0 0 0
75 1 1 0 1.89590056 292.25785063 7.50000000 0 0 0
76 1 1 0 2.59690580 291.02527732 7.50000000 0 0 0
77 1 1 0 1.87996862 289.80190231 7.50000000 0 0 0
78 1 1 0 2.58097387 288.56932899 7.50000000 0 0 0
79 1 1 0 1.86403668 287.34595398 7.50000000 0 0 0
80 1 1 0 2.56504193 286.11338067 7.50000000 0 0 0
81 1 1 0 1.84810475 284.89000566 7.50000000 0 0 0
82 1 1 0 2.54910999 283.65743234 7.50000000 0 0 0
83 1 1 0 1.83217281 282.43405734 7.50000000 0 0 0
84 1 1 0 2.53317805 281.20148402 7.50000000 0 0 0
85 1 1 0 1.81624087 279.97810901 7.50000000 0 0 0
86 1 1 0 2.51724612 278.74553569 7.50000000 0 0 0
87 1 1 0 1.80030893 277.52216069 7.50000000 0 0 0
88 1 1 0 2.50131418 276.28958737 7.50000000 0 0 0
89 1 1 0 1.78437700 275.06621236 7.50000000 0 0 0
90 1 1 0 2.48538224 273.83363904 7.50000000 0 0 0
91 1 1 0 1.76844506 272.61026404 7.50000000 0 0 0
92 1 1 0 2.46945030 271.37769072 7.50000000 0 0 0
93 1 1 0 1.75251312 270.15431571 7.50000000 0 0 0
94 1 1 0 2.45351837 268.92174240 7.50000000 0 0 0
95 1 1 0 1.73658118 267.69836739 7.50000000 0 0 0
96 1 1 0 2.43758643 266.46579407 7.50000000 0 0 0
97 1 1 0 1.72064925 265.24241906 7.50000000 0 0 0
98 1 1 0 2.42165449 264.00984575 7.50000000 0 0 0
99 1 1 0 1.70471731 262.78647074 7.50000000 0 0 0
100 1 1 0 2.40572255 261.55389742 7.50000000 0 0 0
101 1 1 0 1.68878537 260.33052241 7.50000000 0 0 0
102 1 1 0 2.38979062 259.09794910 7.50000000 0 0 0
103 1 1 0 1.67285343 257.87457409 7.50000000 0 0 0
104 1 1 0 2.37385868 256.64200077 7.50000000 0 0 0
105 1 1 0 1.65692150 255.41862576 7.50000000 0 0 0
106 1 1 0 2.35792674 254.18605245 7.50000000 0 0 0
107 1 1 0 1.64098956 252.96267744 7.50000000 0 0 0
108 1 1 0 2.34199480 251.73010412 7.50000000 0 0 0
109 1 1 0 1.62505762 250.50672911 7.50000000 0 0 0
110 1 1 0 2.32606287 249.27415580 7.50000000 0 0 0
111 1 1 0 1.60912568 248.05078079 7.50000000 0 0 0
112 1 1 0 2.31013093 246.81820747 7.50000000 0 0 0
113 1 1 0 1.59319375 245.59483247 7.50000000 0 0 0
114 1 1 0 2.29419899 244.36225915 7.50000000 0 0 0
115 1 1 0 1.57726181 243.13888414 7.50000000 0 0 0
116 1 1 0 2.27826705 241.90631082 7.50000000 0 0 0
117 1 1 0 1.56132987 240.68293582 7.50000000 0 0 0
118 1 1 0 2.26233512 239.45036250 7.50000000 0 0 0
119 1 1 0 1.54539793 238.22698749 7.50000000 0 0 0
120 1 1 0 2.24640318 236.99441417 7.50000000 0 0 0
121 1 1 0 1.52946600 235.77103917 7.50000000 0 0 0
122 1 1 0 2.23047124 234.53846585 7.50000000 0 0 0
123 1 1 0 1.51353406 233.31509084 7.50000000 0 0 0
124 1 1 0 2.21453930 232.08251753 7.50000000 0 0 0
125 1 1 0 1.49760212 230.85914252 7.50000000 0 0 0
126 1 1 0 2.19860737 229.62656920 7.50000000 0 0 0
127 1 1 0 1.48167018 228.40319419 7.50000000 0 0 0
128 1 1 0 2.18267543 227.17062088 7.50000000 0 0 0
129 1 1 0 1.46573825 225.94724587 7.50000000 0 0 0
130 1 1 0 2.16674349 224.71467255 7.50000000 0 0 0
131 1 1 0 1.44980631 223.49129754 7.50000000 0 0 0
132 1 1 0 2.15081155 222.25872423 7.50000000 0 0 0
133 1 1 0 1.43387437 221.03534922 7.50000000 0 0 0
134 1 1 0 2.13487962 219.80277590 7.50000000 0 0 0
135 1 1 0 1.41794243 218.57940089 7.50000000 0 0 0
136 1 1 0 2.11894768 217.34682758 7.50000000 0 0 0
137 1 1 0 1.40201050 216.12345257 7.50000000 0 0 0
138 1 1 0 2.10301574 214.89087925 7.50000000 0 0 0
139 1 1 0 1.38607856 213.66750424 7.50000000 0 0 0
140 1 1 0 2.08708380 212.43493093 7.50000000 0 0 0
141 1 1 0 1.37014662 211.21155592 7.50000000 0 0 0
142 1 1 0 2.07115187 209.97898260 7.50000000 0 0 0
143 1 1 0 1.35421468 208.75560760 7.50000000 0 0 0
144 1 1 0 2.05521993 207.52303428 7.50000000 0 0 0
145 1 1 0 1.33828275 206.29965927 7.50000000 0 0 0
146 1 1 0 2.03928799 205.06708595 7.50000000 0 0 0
147 1 1 0 1.32235081 203.84371095 7.50000000 0 0 0
148 1 1 0 2.02335605 202.61113763 7.50000000 0 0 0
149 1 1 0 1.30641887 201.38776262 7.50000000 0 0 0
150 1 1 0 2.00742412 200.15518931 7.50000000 0 0 0
151 1 1 0 1.29048693 198.93181430 7.50000000 0 0 0
152 1 1 0 1.99149218 197.69924098 7.50000000 0 0 0
153 1 1 0 1.27455500 196.47586597 7.50000000 0 0 0
154 1 1 0 1.97556024 195.24329266 7.50000000 0 0 0
155 1 1 0 1.25862306 194.01991765 7.50000000 0 0 0
156 1 1 0 1.95962830 192.78734433 7.50000000 0 0 0
157 1 1 0 1.24269112 191.56396932 7.50000000 0 0 0
158 1 1 0 1.94369637 190.33139601 7.50000000 0 0 0
159 1 1 0 1.22675919 189.10802100 7.50000000 0 0 0
160 1 1 0 1.92776443 187.87544768 7.50000000 0 0 0
161 1 1 0 1.21082725 186.65207267 7.50000000 0 0 0
162 1 1 0 1.91183249 185.41949936 7.50000000 0 0 0
163 1 1 0 1.19489531 184.19612435 7.50000000 0 0 0
164 1 1 0 1.89590055 182.96355103 7.50000000 0 0 0
165 1 1 0 1.17896337 181.74017602 7.50000000 0 0 0
166 1 1 0 1.87996862 180.50760271 7.50000000 0 0 0
167 1 1 0 1.16303144 179.28422770 7.50000000 0 0 0
168 1 1 0 1.86403668 178.05165438 7.50000000 0 0 0
169 1 1 0 1.14709950 176.82827938 7.50000000 0 0 0
170 1 1 0 1.84810474 175.59570606 7.50000000 0 0 0
171 1 1 0 1.13116756 174.37233105 7.50000000 0 0 0
172 1 1 0 1.83217280 173.13975773 7.50000000 0 0 0
173 1 1 0 1.11523562 171.91638273 7.50000000 0 0 0
174 1 1 0 1.81624087 170.68380941 7.50000000 0 0 0
175 1 1 0 1.09930369 169.46043440 7.50000000 0 0 0
176 1 1 0 1.80030893 168.22786108 7.50000000 0 0 0
177 1 1 0 1.08337175 167.00448608 7.50000000 0 0 0
178 1 1 0 1.78437699 165.77191276 7.50000000 0 0 0
179 1 1 0 1.06743981 164.54853775 7.50000000 0 0 0
180 1 1 0 1.76844505 163.31596444 7.50000000 0 0 0
181 1 1 0 1.05150787 162.09258943 7.50000000 0 0 0
182 1 1 0 1.75251312 160.86001611 7.50000000 0 0 0
183 1 1 0 1.03557594 159.63664110 7.50000000 0 0 0
184 1 1 0 1.73658118 158.40406779 7.50000000 0 0 0
185 1 1 0 1.01964400 157.18069278 7.50000000 0 0 0
186 1 1 0 1.72064924 155.94811946 7.50000000 0 0 0
187 1 1 0 1.00371206 154.72474445 7.50000000 0 0 0
188 1 1 0 1.70471730 153.49217114 7.50000000 0 0 0
189 1 1 0 0.98778012 152.26879613 7.50000000 0 0 0
190 1 1 0 1.68878537 151.03622281 7.50000000 0 0 0
191 1 1 0 0.97184819 149.81284780 7.50000000 0 0 0
192 1 1 0 1.67285343 148.58027449 7.50000000 0 0 0
193 1 1 0 0.95591625 147.35689948 7.50000000 0 0 0
194 1 1 0 1.65692149 146.12432616 7.50000000 0 0 0
195 1 1 0 0.93998431 144.90095115 7.50000000 0 0 0
196 1 1 0 1.64098956 143.66837784 7.50000000 0 0 0
197 1 1 0 0.92405237 142.44500283 7.50000000 0 0 0
198 1 1 0 1.62505762 141.21242951 7.50000000 0 0 0
199 1 1 0 0.90812044 139.98905451 7.50000000 0 0 0
200 1 1 0 1.60912568 138.75648119 7.50000000 0 0 0
201 1 1 0 0.89218850 137.53310618 7.50000000 0 0 0
202 1 1 0 1.59319374 136.30053286 7.50000000 0 0 0
203 1 1 0 0.87625656 135.07715786 7.50000000 0 0 0
204 1 1 0 1.57726181 133.84458454 7.50000000 0 0 0
205 1 1 0 0.86032462 132.62120953 7.50000000 0 0 0
206 1 1 0 1.56132987 131.38863621 7.50000000 0 0 0
207 1 1 0 0.84439269 130.16526121 7.50000000 0 0 0
208 1 1 0 1.54539793 128.93268789 7.50000000 0 0 0
209 1 1 0 0.82846075 127.70931288 7.50000000 0 0 0
210 1 1 0 1.52946599 126.47673957 7.50000000 0 0 0
211 1 1 0 0.81252881 125.25336456 7.50000000 0 0 0
212 1 1 0 1.51353406 124.02079124 7.50000000 0 0 0
213 1 1 0 0.79659687 122.79741623 7.50000000 0 0 0
214 1 1 0 1.49760212 121.56484292 7.50000000 0 0 0
215 1 1 0 0.78066494 120.34146791 7.50000000 0 0 0
216 1 1 0 1.48167018 119.10889459 7.50000000 0 0 0
217 1 1 0 0.76473300 117.88551958 7.50000000 0 0 0
218 1 1 0 1.46573824 116.65294627 7.50000000 0 0 0
219 1 1 0 0.74880106 115.42957126 7.50000000 0 0 0
220 1 1 0 1.44980631 114.19699794 7.50000000 0 0 0
221 1 1 0 0.73286912 112.97362293 7.50000000 0 0 0
222 1 1 0 1.43387437 111.74104962 7.50000000 0 0 0
223 1 1 0 0.71693719 110.51767461 7.50000000 0 0 0
224 1 1 0 1.41794243 109.28510129 7.50000000 0 0 0
225 1 1 0 0.70100525 108.06172628 7.50000000 0 0 0
226 1 1 0 1.40201049 106.82915297 7.50000000 0 0 0
227 1 1 0 0.68507331 105.60577796 7.50000000 0 0 0
228 1 1 0 1.38607856 104.37320464 7.50000000 0 0 0
229 1 1 0 0.66914137 103.14982964 7.50000000 0 0 0
230 1 1 0 1.37014662 101.91725632 7.50000000 0 0 0
231 1 1 0 0.65320944 100.69388131 7.50000000 0 0 0
232 1 1 0 1.35421468 99.46130799 7.50000000 0 0 0
233 1 1 0 0.63727750 98.23793299 7.50000000 0 0 0
234 1 1 0 1.33828274 97.00535967 7.50000000 0 0 0
235 1 1 0 0.62134556 95.78198466 7.50000000 0 0 0
236 1 1 0 1.32235081 94.54941134 7.50000000 0 0 0
237 1 1 0 0.60541362 93.32603634 7.50000000 0 0 0
238 1 1 0 1.30641887 92.09346302 7.50000000 0 0 0
239 1 1 0 0.58948169 90.87008801 7.50000000 0 0 0
240 1 1 0 1.29048693 89.63751470 7.50000000 0 0 0
241 1 1 0 0.57354975 88.41413969 7.50000000 0 0 0
242 1 1 0 1.27455499 87.18156637 7.50000000 0 0 0
243 1 1 0 0.55761781 85.95819136 7.50000000 0 0 0
244 1 1 0 1.25862306 84.72561805 7.50000000 0 0 0
245 1 1 0 0.54168587 83.50224304 7.50000000 0 0 0
246 1 1 0 1.24269112 82.26966972 7.50000000 0 0 0
247 1 1 0 0.52575394 81.04629471 7.50000000 0 0 0
248 1 1 0 1.22675918 79.81372140 7.50000000 0 0 0
249 1 1 0 0.50982200 78.59034639 7.50000000 0 0 0
250 1 1 0 1.21082724 77.35777307 7.50000000 0 0 0
251 1 1 0 0.49389006 76.13439806 7.50000000 0 0 0
252 1 1 0 1.19489531 74.90182475 7.50000000 0 0 0
253 1 1 0 0.47795812 73.67844974 7.50000000 0 0 0
254 1 1 0 1.17896337 72.44587642 7.50000000 0 0 0
255 1 1 0 0.46202619 71.22250141 7.50000000 0 0 0
256 1 1 0 1.16303143 69.98992810 7.50000000 0 0 0
257 1 1 0 0.44609425 68.76655309 7.50000000 0 0 0
258 1 1 0 1.14709949 67.53397977 7.50000000 0 0 0
259 1 1 0 0.43016231 66.31060477 7.50000000 0 0 0
260 1 1 0 1.13116756 65.07803145 7.50000000 0 0 0
261 1 1 0 0.41423037 63.85465644 7.50000000 0 0 0
262 1 1 0 1.11523562 62.62208312 7.50000000 0 0 0
263 1 1 0 0.39829844 61.39870812 7.50000000 0 0 0
264 1 1 0 1.09930368 60.16613480 7.50000000 0 0 0
265 1 1 0 0.38236650 58.94275979 7.50000000 0 0 0
266 1 1 0 1.08337174 57.71018648 7.50000000 0 0 0
267 1 1 0 0.36643456 56.48681147 7.50000000 0 0 0
268 1 1 0 1.06743981 55.25423815 7.50000000 0 0 0
269 1 1 0 0.35050262 54.03086314 7.50000000 0 0 0
270 1 1 0 1.05150787 52.79828983 7.50000000 0 0 0
271 1 1 0 0.33457069 51.57491482 7.50000000 0 0 0
272 1 1 0 1.03557593 50.34234150 7.50000000 0 0 0
273 1 1 0 0.31863875 49.11896649 7.50000000 0 0 0
274 1 1 0 1.01964399 47.88639318 7.50000000 0 0 0
275 1 1 0 0.30270681 46.66301817 7.50000000 0 0 0
276 1 1 0 1.00371206 45.43044485 7.50000000 0 0 0
277 1 1 0 0.28677487 44.20706984 7.50000000 0 0 0
278 1 1 0 0.98778012 42.97449653 7.50000000 0 0 0
279 1 1 0 0.27084294 41.75112152 7.50000000 0 0 0
280 1 1 0 0.97184818 40.51854820 7.50000000 0 0 0
281 1 1 0 0.25491100 39.29517319 7.50000000 0 0 0
282 1 1 0 0.95591624 38.06259988 7.50000000 0 0 0
283 1 1 0 0.23897906 36.83922487 7.50000000 0 0 0
284 1 1 0 0.93998431 35.60665155 7.50000000 0 0 0
285 1 1 0 0.22304712 34.38327655 7.50000000 0 0 0
286 1 1 0 0.92405237 33.15070323 7.50000000 0 0 0
287 1 1 0 0.20711519 31.92732822 7.50000000 0 0 0
288 1 1 0 0.90812043 30.69475490 7.50000000 0 0 0
289 1 1 0 0.19118325 29.47137990 7.50000000 0 0 0
290 1 1 0 0.89218849 28.23880658 7.50000000 0 0 0
291 1 1 0 0.17525131 27.01543157 7.50000000 0 0 0
292 1 1 0 0.87625656 25.78285825 7.50000000 0 0 0
293 1 1 0 0.15931937 24.55948325 7.50000000 0 0 0
294 1 1 0 0.86032462 23.32690993 7.50000000 0 0 0
295 1 1 0 0.14338744 22.10353492 7.50000000 0 0 0
296 1 1 0 0.84439268 20.87096161 7.50000000 0 0 0
297 1 1 0 0.12745550 19.64758660 7.50000000 0 0 0
298 1 1 0 0.82846074 18.41501328 7.50000000 0 0 0
299 1 1 0 0.11152356 17.19163827 7.50000000 0 0 0
300 1 1 0 0.81252881 15.95906496 7.50000000 0 0 0
301 1 1 0 0.09559162 14.73568995 7.50000000 0 0 0
302 1 1 0 0.79659687 13.50311663 7.50000000 0 0 0
303 1 1 0 0.07965969 12.27974162 7.50000000 0 0 0
304 1 1 0 0.78066493 11.04716831 7.50000000 0 0 0
305 1 1 0 0.06372775 9.82379330 7.50000000 0 0 0
306 1 1 0 0.76473299 8.59121998 7.50000000 0 0 0
307 1 1 0 0.04779581 7.36784497 7.50000000 0 0 0
308 1 1 0 0.74880106 6.13527166 7.50000000 0 0 0
309 1 1 0 0.03186387 4.91189665 7.50000000 0 0 0
310 1 1 0 0.73286912 3.67932333 7.50000000 0 0 0
311 1 1 0 0.01593194 2.45594832 7.50000000 0 0 0
312 1 1 0 0.71693718 1.22337501 7.50000000 0 0 0
313 1 1 0 0.00000000 0.00000000 7.50000000 0 0 0
314 1 1 0 4.25382729 327.85530388 7.50000000 0 0 0
315 1 1 0 4.95483254 326.62273056 7.50000000 0 0 0
316 1 1 0 4.23789535 325.39935555 7.50000000 0 0 0
317 1 1 0 4.93890060 324.16678224 7.50000000 0 0 0
318 1 1 0 4.22196342 322.94340723 7.50000000 0 0 0
319 1 1 0 4.92296866 321.71083391 7.50000000 0 0 0
320 1 1 0 4.20603148 320.48745890 7.50000000 0 0 0
321 1 1 0 4.90703672 319.25488559 7.50000000 0 0 0
322 1 1 0 4.19009954 318.03151058 7.50000000 0 0 0
323 1 1 0 4.89110479 316.79893726 7.50000000 0 0 0
324 1 1 0 4.17416760 315.57556226 7.50000000 0 0 0
325 1 1 0 4.87517285 314.34298894 7.50000000 0 0 0
326 1 1 0 4.15823567 313.11961393 7.50000000 0 0 0
327 1 1 0 4.85924091 311.88704061 7.50000000 0 0 0
328 1 1 0 4.14230373 310.66366561 7.50000000 0 0 0
329 1 1 0 4.84330897 309.43109229 7.50000000 0 0 0
330 1 1 0 4.12637179 308.20771728 7.50000000 0 0 0
331 1 1 0 4.82737704 306.97514396 7.50000000 0 0 0
332 1 1 0 4.11043985 305.75176896 7.50000000 0 0 0
333 1 1 0 4.81144510 304.51919564 7.50000000 0 0 0
334 1 1 0 4.09450792 303.29582063 7.50000000 0 0 0
335 1 1 0 4.79551316 302.06324732 7.50000000 0 0 0
336 1 1 0 4.07857598 300.83987231 7.50000000 0 0 0
337 1 1 0 4.77958122 299.60729899 7.50000000 0 0 0
338 1 1 0 4.06264404 298.38392398 7.50000000 0 0 0
339 1 1 0 4.76364929 297.15135067 7.50000000 0 0 0
340 1 1 0 4.04671210 295.92797566 7.50000000 0 0 0
341 1 1 0 4.74771735 294.69540234 7.50000000 0 0 0
342 1 1 0 4.03078017 293.47202733 7.50000000 0 0 0
343 1 1 0 4.73178541 292.23945402 7.50000000 0 0 0
344 1 1 0 4.01484823 291.01607901 7.50000000 0 0 0
345 1 1 0 4.71585347 289.78350569 7.50000000 0 0 0
346 1 1 0 3.99891629 288.56013068 7.50000000 0 0 0
347 1 1 0 4.69992154 287.32755737 7.50000000 0 0 0
348 1 1 0 3.98298435 286.10418236 7.50000000 0 0 0
349 1 1 0 4.68398960 284.87160904 7.50000000 0 0 0
350 1 1 0 3.96705242 283.64823403 7.50000000 0 0 0
351 1 1 0 4.66805766 282.41566072 7.50000000 0 0 0
352 1 1 0 3.95112048 281.19228571 7.50000000 0 0 0
353 1 1 0 4.65212572 279.95971239 7.50000000 0 0 0
354 1 1 0 3.93518854 278.73633739 7.50000000 0 0 0
355 1 1 0 4.63619379 277.50376407 7.50000000 0 0 0
356 1 1 0 3.91925660 276.28038906 7.50000000 0 0 0
357 1 1 0 4.62026185 275.04781574 7.50000000 0 0 0
358 1 1 0 3.90332467 273.82444074 7.50000000 0 0 0
359 1 1 0 4.60432991 272.59186742 7.50000000 0 0 0
360 1 1 0 3.88739273 271.36849241 7.50000000 0 0 0
361 1 1 0 4.58839797 270.13591910 7.50000000 0 0 0
362 1 1 0 3.87146079 268.91254409 7.50000000 0 0 0
363 1 1 0 4.57246604 267.67997077 7.50000000 0 0 0
364 1 1 0 3.85552885 266.45659576 7.50000000 0 0 0
365 1 1 0 4.55653410 265.22402245 7.50000000 0 0 0
366 1 1 0 3.83959692 264.00064744 7.50000000 0 0 0
367 1 1 0 4.54060216 262.76807412 7.50000000 0 0 0
368 1 1 0 3.82366498 261.54469911 7.50000000 0 0 0
369 1 1 0 4.52467022 260.31212580 7.50000000 0 0 0
370 1 1 0 3.80773304 259.08875079 7.50000000 0 0 0
371 1 1 0 4.50873829 257.85617747 7.50000000 0 0 0
372 1 1 0 3.79180111 256.63280246 7.50000000 0 0 0
373 1 1 0 4.49280635 255.40022915 7.50000000 0 0 0
374 1 1 0 3.77586917 254.17685414 7.50000000 0 0 0
375 1 1 0 4.47687441 252.94428082 7.50000000 0 0 0
376 1 1 0 3.75993723 251.72090581 7.50000000 0 0 0
377 1 1 0 4.46094247 250.48833250 7.50000000 0 0 0
378 1 1 0 3.74400529 249.26495749 7.50000000 0 0 0
379 1 1 0 4.44501054 248.03238417 7.50000000 0 0 0
380 1 1 0 3.72807336 246.80900917 7.50000000 0 0 0
381 1 1 0 4.42907860 245.57643585 7.50000000 0 0 0
382 1 1 0 3.71214142 244.35306084 7.50000000 0 0 0
383 1 1 0 4.41314666 243.12048752 7.50000000 0 0 0
384 1 1 0 3.69620948 241.89711252 7.50000000 0 0 0
385 1 1 0 4.39721472 240.66453920 7.50000000 0 0 0
386 1 1 0 3.68027754 239.44116419 7.50000000 0 0 0
387 1 1 0 4.38128279 238.20859087 7.50000000 0 0 0
388 1 1 0 3.66434561 236.98521587 7.50000000 0 0 0
389 1 1 0 4.36535085 235.75264255 7.50000000 0 0 0
390 1 1 0 3.64841367 234.52926754 7.50000000 0 0 0
391 1 1 0 4.34941891 233.29669423 7.50000000 0 0 0
392 1 1 0 3.63248173 232.07331922 7.50000000 0 0 0
393 1 1 0 4.33348697 230.84074590 7.50000000 0 0 0
394 1 1 0 3.61654979 229.61737089 7.50000000 0 0 0
395 1 1 0 4.31755504 228.38479758 7.50000000 0 0 0
396 1 1 0 3.60061786 227.16142257 7.50000000 0 0 0
397 1 1 0 4.30162310 225.92884925 7.50000000 0 0 0
398 1 1 0 3.58468592 224.70547424 7.50000000 0 0 0
399 1 1 0 4.28569116 223.47290093 7.50000000 0 0 0
400 1 1 0 3.56875398 222.24952592 7.50000000 0 0 0
401 1 1 0 4.26975922 221.01695260 7.50000000 0 0 0
402 1 1 0 3.55282204 219.79357759 7.50000000 0 0 0
403 1 1 0 4.25382729 218.56100428 7.50000000 0 0 0
404 1 1 0 3.53689011 217.33762927 7.50000000 0 0 0
405 1 1 0 4.23789535 216.10505595 7.50000000 0 0 0
406 1 1 0 3.52095817 214.88168094 7.50000000 0 0 0
407 1 1 0 4.22196341 213.64910763 7.50000000 0 0 0
408 1 1 0 3.50502623 212.42573262 7.50000000 0 0 0
409 1 1 0 4.20603148 211.19315930 7.50000000 0 0 0
410 1 1 0 3.48909429 209.96978430 7.50000000 0 0 0
411 1 1 0 4.19009954 208.73721098 7.50000000 0 0 0
412 1 1 0 3.47316236 207.51383597 7.50000000 0 0 0
413 1 1 0 4.17416760 206.28126265 7.50000000 0 0 0
414 1 1 0 3.45723042 205.05788765 7.50000000 0 0 0
415 1 1 0 4.15823566 203.82531433 7.50000000 0 0 0
416 1 1 0 3.44129848 202.60193932 7.50000000 0 0 0
417 1 1 0 4.14230373 201.36936600 7.50000000 0 0 0
418 1 1 0 3.42536654 200.14599100 7.50000000 0 0 0
419 1 1 0 4.12637179 198.91341768 7.50000000 0 0 0
420 1 1 0 3.40943461 197.69004267 7.50000000 0 0 0
421 1 1 0 4.11043985 196.45746936 7.50000000 0 0 0
422 1 1 0 3.39350267 195.23409435 7.50000000 0 0 0
423 1 1 0 4.09450791 194.00152103 7.50000000 0 0 0
424 1 1 0 3.37757073 192.77814602 7.50000000 0 0 0
425 1 1 0 4.07857598 191.54557271 7.50000000 0 0 0
426 1 1 0 3.36163879 190.32219770 7.50000000 0 0 0
427 1 1 0 4.06264404 189.08962438 7.50000000 0 0 0
428 1 1 0 3.34570686 187.86624937 7.50000000 0 0 0
429 1 1 0 4.04671210 186.63367606 7.50000000 0 0 0
430 1 1 0 3.32977492 185.41030105 7.50000000 0 0 0
431 1 1 0 4.03078016 184.17772773 7.50000000 0 0 0
432 1 1 0 3.31384298 182.95435272 7.50000000 0 0 0
433 1 1 0 4.01484823 181.72177941 7.50000000 0 0 0
434 1 1 0 3.29791104 180.49840440 7.50000000 0 0 0
435 1 1 0 3.99891629 179.26583108 7.50000000 0 0 0
436 1 1 0 3.28197911 178.04245607 7.50000000 0 0 0
437 1 1 0 3.98298435 176.80988276 7.50000000 0 0 0
438 1 1 0 3.26604717 175.58650775 7.50000000 0 0 0
439 1 1 0 3.96705241 174.35393443 7.50000000 0 0 0
440 1 1 0 3.25011523 173.13055943 7.50000000 0 0 0
441 1 1 0 3.95112048 171.89798611 7.50000000 0 0 0
442 1 1 0 3.23418329 170.67461110 7.50000000 0 0 0
443 1 1 0 3.93518854 169.44203778 7.50000000 0 0 0
444 1 1 0 3.21825136 168.21866278 7.50000000 0 0 0
445 1 1 0 3.91925660 166.98608946 7.50000000 0 0 0
446 1 1 0 3.20231942 165.76271445 7.50000000 0 0 0
447 1 1 0 3.90332466 164.53014114 7.50000000 0 0 0
448 1 1 0 3.18638748 163.30676613 7.50000000 0 0 0
449 1 1 0 3.88739273 162.07419281 7.50000000 0 0 0
450 1 1 0 3.17045554 160.85081780 7.50000000 0 0 0
451 1 1 0 3.87146079 159.61824449 7.50000000 0 0 0
452 1 1 0 3.15452361 158.39486948 7.50000000 0 0 0
453 1 1 0 3.85552885 157.16229616 7.50000000 0 0 0
454 1 1 0 3.13859167 155.93892115 7.50000000 0 0 0
455 1 1 0 3.83959691 154.70634784 7.50000000 0 0 0
456 1 1 0 3.12265973 153.48297283 7.50000000 0 0 0
457 1 1 0 3.82366498 152.25039951 7.50000000 0 0 0
458 1 1 0 3.10672779 151.02702450 7.50000000 0 0 0
459 1 1 0 3.80773304 149.79445119 7.50000000 0 0 0
460 1 1 0 3.09079586 148.57107618 7.50000000 0 0 0
461 1 1 0 3.79180110 147.33850286 7.50000000 0 0 0
462 1 1 0 3.07486392 146.11512785 7.50000000 0 0 0
463 1 1 0 3.77586916 144.88255454 7.50000000 0 0 0
464 1 1 0 3.05893198 143.65917953 7.50000000 0 0 0
465 1 1 0 3.75993723 142.42660621 7.50000000 0 0 0
466 1 1 0 3.04300004 141.20323120 7.50000000 0 0 0
467 1 1 0 3.74400529 139.97065789 7.50000000 0 0 0
468 1 1 0 3.02706811 138.74728288 7.50000000 0 0 0
469 1 1 0 3.72807335 137.51470956 7.50000000 0 0 0
470 1 1 0 3.01113617 136.29133456 7.50000000 0 0 0
471 1 1 0 3.71214141 135.05876124 7.50000000 0 0 0
472 1 1 0 2.99520423 133.83538623 7.50000000 0 0 0
473 1 1 0 3.69620948 132.60281291 7.50000000 0 0 0
474 1 1 0 2.97927229 131.37943791 7.50000000 0 0 0
475 1 1 0 3.68027754 130.14686459 7.50000000 0 0 0
476 1 1 0 2.96334036 128.92348958 7.50000000 0 0 0
477 1 1 0 3.66434560 127.69091627 7.50000000 0 0 0
478 1 1 0 2.94740842 126.46754126 7.50000000 0 0 0
479 1 1 0 3.64841366 125.23496794 7.50000000 0 0 0
480 1 1 0 2.93147648 124.01159293 7.50000000 0 0 0
481 1 1 0 3.63248173 122.77901962 7.50000000 0 0 0
482 1 1 0 2.91554454 121.55564461 7.50000000 0 0 0
483 1 1 0 3.61654979 120.32307129 7.50000000 0 0 0
484 1 1 0 2.89961261 119.09969628 7.50000000 0 0 0
485 1 1 0 3.60061785 117.86712297 7.50000000 0 0 0
486 1 1 0 2.88368067 116.64374796 7.50000000 0 0 0
487 1 1 0 3.58468591 115.41117464 7.50000000 0 0 0
488 1 1 0 2.86774873 114.18779963 7.50000000 0 0 0
489 1 1 0 3.56875398 112.95522632 7.50000000 0 0 0
490 1 1 0 2.85181679 111.73185131 7.50000000 0 0 0
491 1 1 0 3.55282204 110.49927799 7.50000000 0 0 0
492 1 1 0 2.83588486 109.27590298 7.50000000 0 0 0
493 1 1 0 3.53689010 108.04332967 7.50000000 0 0 0
494 1 1 0 2.81995292 106.81995466 7.50000000 0 0 0
495 1 1 0 3.52095816 105.58738134 7.50000000 0 0 0
496 1 1 0 2.80402098 104.36400634 7.50000000 0 0 0
497 1 1 0 3.50502623 103.13143302 7.50000000 0 0 0
498 1 1 0 2.78808904 101.90805801 7.50000000 0 0 0
499 1 1 0 3.48909429 100.67548469 7.50000000 0 0 0
500 1 1 0 2.77215711 99.45210969 7.50000000 0 0 0
501 1 1 0 3.47316235 98.21953637 7.50000000 0 0 0
502 1 1 0 2.75622517 96.99616136 7.50000000 0 0 0
503 1 1 0 3.45723041 95.76358804 7.50000000 0 0 0
504 1 1 0 2.74029323 94.54021304 7.50000000 0 0 0
505 1 1 0 3.44129848 93.30763972 7.50000000 0 0 0
506 1 1 0 2.72436129 92.08426471 7.50000000 0 0 0
507 1 1 0 3.42536654 90.85169140 7.50000000 0 0 0
508 1 1 0 2.70842936 89.62831639 7.50000000 0 0 0
509 1 1 0 3.40943460 88.39574307 7.50000000 0 0 0
510 1 1 0 2.69249742 87.17236806 7.50000000 0 0 0
511 1 1 0 3.39350266 85.93979475 7.50000000 0 0 0
512 1 1 0 2.67656548 84.71641974 7.50000000 0 0 0
513 1 1 0 3.37757073 83.48384642 7.50000000 0 0 0
514 1 1 0 2.66063354 82.26047141 7.50000000 0 0 0
515 1 1 0 3.36163879 81.02789810 7.50000000 0 0 0
516 1 1 0 2.64470161 79.80452309 7.50000000 0 0 0
517 1 1 0 3.34570685 78.57194977 7.50000000 0 0 0
518 1 1 0 2.62876967 77.34857476 7.50000000 0 0 0
519 1 1 0 3.32977491 76.11600145 7.50000000 0 0 0
520 1 1 0 2.61283773 74.89262644 7.50000000 0 0 0
521 1 1 0 3.31384298 73.66005312 7.50000000 0 0 0
522 1 1 0 2.59690579 72.43667811 7.50000000 0 0 0
523 1 1 0 3.29791104 71.20410480 7.50000000 0 0 0
524 1 1 0 2.58097386 69.98072979 7.50000000 0 0 0
525 1 1 0 3.28197910 68.74815647 7.50000000 0 0 0
526 1 1 0 2.56504192 67.52478147 7.50000000 0 0 0
527 1 1 0 3.26604716 66.29220815 7.50000000 0 0 0
528 1 1 0 2.54910998 65.06883314 7.50000000 0 0 0
529 1 1 0 3.25011523 63.83625982 7.50000000 0 0 0
530 1 1 0 2.53317804 62.61288482 7.50000000 0 0 0
531 1 1 0 3.23418329 61.38031150 7.50000000 0 0 0
532 1 1 0 2.51724611 60.15693649 7.50000000 0 0 0
533 1 1 0 3.21825135 58.92436317 7.50000000 0 0 0
534 1 1 0 2.50131417 57.70098817 7.50000000 0 0 0
535 1 1 0 3.20231941 56.46841485 7.50000000 0 0 0
536 1 1 0 2.48538223 55.24503984 7.50000000 0 0 0
537 1 1 0 3.18638748 54.01246653 7.50000000 0 0 0
538 1 1 0 2.46945030 52.78909152 7.50000000 0 0 0
539 1 1 0 3.17045554 51.55651820 7.50000000 0 0 0
540 1 1 0 2.45351836 50.33314319 7.50000000 0 0 0
541 1 1 0 3.15452360 49.10056988 7.50000000 0 0 0
542 1 1 0 2.43758642 47.87719487 7.50000000 0 0 0
543 1 1 0 3.13859166 46.64462155 7.50000000 0 0 0
544 1 1 0 2.42165448 45.42124654 7.50000000 0 0 0
545 1 1 0 3.12265973 44.18867323 7.50000000 0 0 0
546 1 1 0 2.40572255 42.96529822 7.50000000 0 0 0
547 1 1 0 3.10672779 41.73272490 7.50000000 0 0 0
548 1 1 0 2.38979061 40.50934989 7.50000000 0 0 0
549 1 1 0 3.09079585 39.27677658 7.50000000 0 0 0
550 1 1 0 2.37385867 38.05340157 7.50000000 0 0 0
551 1 1 0 3.07486391 36.82082825 7.50000000 0 0 0
552 1 1 0 2.35792673 35.59745324 7.50000000 0 0 0
553 1 1 0 3.05893198 34.36487993 7.50000000 0 0 0
554 1 1 0 2.34199480 33.14150492 7.50000000 0 0 0
555 1 1 0 3.04300004 31.90893160 7.50000000 0 0 0
556 1 1 0 2.32606286 30.68555660 7.50000000 0 0 0
557 1 1 0 3.02706810 29.45298328 7.50000000 0 0 0
558 1 1 0 2.31013092 28.22960827 7.50000000 0 0 0
559 1 1 0 3.01113616 26.99703495 7.50000000 0 0 0
560 1 1 0 2.29419898 25.77365995 7.50000000 0 0 0
561 1 1 0 2.99520423 24.54108663 7.50000000 0 0 0
562 1 1 0 2.27826705 23.31771162 7.50000000 0 0 0
563 1 1 0 2.97927229 22.08513831 7.50000000 0 0 0
564 1 1 0 2.26233511 20.86176330 7.50000000 0 0 0
565 1 1 0 2.96334035 19.62918998 7.50000000 0 0 0
566 1 1 0 2.24640317 18.40581497 7.50000000 0 0 0
567 1 1 0 2.94740841 17.17324166 7.50000000 0 0 0
568 1 1 0 2.23047123 15.94986665 7.50000000 0 0 0
569 1 1 0 2.93147648 14.71729333 7.50000000 0 0 0
570 1 1 0 2.21453930 13.49391832 7.50000000 0 0 0
571 1 1 0 2.91554454 12.26134501 7.50000000 0 0 0
572 1 1 0 2.19860736 11.03797000 7.50000000 0 0 0
573 1 1 0 2.89961260 9.80539668 7.50000000 0 0 0
574 1 1 0 2.18267542 8.58202167 7.50000000 0 0 0
575 1 1 0 2.88368067 7.34944836 7.50000000 0 0 0
576 1 1 0 2.16674348 6.12607335 7.50000000 0 0 0
577 1 1 0 2.86774873 4.89350003 7.50000000 0 0 0
578 1 1 0 2.15081155 3.67012502 7.50000000 0 0 0
579 1 1 0 2.85181679 2.43755171 7.50000000 0 0 0
580 1 1 0 2.13487961 1.21417670 7.50000000 0 0 0
581 1 1 0 7.08971214 327.83690726 7.50000000 0 0 0
582 1 1 0 6.37277496 326.61353225 7.50000000 0 0 0
583 1 1 0 7.07378021 325.38095894 7.50000000 0 0 0
584 1 1 0 6.35684302 324.15758393 7.50000000 0 0 0
585 1 1 0 7.05784827 322.92501061 7.50000000 0 0 0
586 1 1 0 6.34091109 321.70163560 7.50000000 0 0 0
587 1 1 0 7.04191633 320.46906229 7.50000000 0 0 0
588 1 1 0 6.32497915 319.24568728 7.50000000 0 0 0
589 1 1 0 7.02598439 318.01311396 7.50000000 0 0 0
590 1 1 0 6.30904721 316.78973896 7.50000000 0 0 0
591 1 1 0 7.01005246 315.55716564 7.50000000 0 0 0