ITEM: TIMESTEP
0
ITEM: NUMBER OF ATOMS
22328
ITEM: BOX BOUNDS pp pp pp
0.0000000000000000e+00 1.2975027299999999e+02
0.0000000000000000e+00 2.2473406499999999e+02
0.0000000000000000e+00 1.5000000000000000e+01
ITEM: ATOMS id type x y z c_csym c_2[1] c_2[2] c_2[3] c_2[4] c_2[5] c_2[6] c_3 
208 1 0.79 8.589 3 6.02511 -149089 -143860 -115897 -16884.7 33290.6 -2816.63 -7.41378 
209 1 0.07 7.368 3 6.02334 -128765 -156454 -116875 -12991.2 33173.3 -632.131 -7.41306 
210 1 0.767 6.133 3 6.02637 -139498 -129149 -120031 2643.55 26817.6 -3227.1 -7.41336 
211 1 0.046 4.912 3 6.01955 -158838 -121376 -121474 -8572.76 23628.5 -364.622 -7.41325 
212 1 0.744 3.677 3 6.02329 -130144 -116513 -123182 -11698.1 17518.7 -3644.74 -7.41278 
213 1 0.023 2.456 3 6.02394 -158221 -121146 -124468 -9737.8 12324.2 -167.163 -7.4131 
214 1 0.721 1.221 3 6.02257 -175494 -115703 -125064 -9864.35 6159.52 -3723.98 -7.41326 
215 1 0 0 3 6.02596 -121084 -131882 -125434 282.188 -41.8899 -0.942354 -7.4128 
392 1 2.208 8.575 3 6.0211 -119851 -130422 -113472 21540.8 36497.1 -8498.23 -7.41319 
393 1 2.906 7.341 3 6.02148 -188448 -145163 -116772 61.4837 29743.1 -12913.1 -7.41405 
394 1 2.185 6.12 3 6.02217 -130230 -141842 -118915 3438.88 28393 -9267.21 -7.41305 
395 1 2.882 4.885 3 6.02589 -145607 -146707 -120513 -13190.1 21938.9 -13771.3 -7.41352 
396 1 2.162 3.664 3 6.02657 -138315 -153421 -122711 -9145.51 17986.5 -9968.34 -7.41341 
397 1 2.859 2.429 3 6.02721 -135909 -131880 -123082 1090.53 11653.4 -14244.7 -7.41319 
398 1 2.138 1.208 3 6.02224 -172673 -115827 -124685 -9664.19 6025.1 -10440.6 -7.41329 
575 1 5.044 8.549 3 6.02114 -141065 -128739 -111628 29643.5 30936.2 -20962.4 -7.41393 
576 1 4.323 7.327 3 6.01966 -167239 -126593 -115144 23643.8 31470.6 -16526.2 -7.41381 
577 1 5.021 6.093 3 6.02294 -139310 -149441 -116078 -1157.66 25042.4 -22552.4 -7.4135 
578 1 4.3 4.872 3 6.02329 -121935 -126718 -119414 -9776.92 22366.9 -18214 -7.41288 
579 1 4.998 3.637 3 6.02304 -177193 -115110 -119509 -18784.9 16492.5 -23489.9 -7.41358 
580 1 4.277 2.416 3 6.02461 -133658 -136523 -121841 5281.65 11419.6 -19381.2 -7.41301 
581 1 4.974 1.181 3 6.02589 -141334 -148009 -121393 -13857.5 6052.39 -23738.4 -7.41347 
758 1 6.462 8.535 3 6.02537 -136155 -174981 -110631 21899.6 32665.2 -21233.8 -7.41421 
759 1 7.159 7.301 3 6.01884 -146028 -149928 -110156 13784 26593.8 -29238.9 -7.41398 
760 1 6.439 6.079 3 6.02345 -135905 -156714 -114927 24334.4 25255.6 -24089.7 -7.41395 
761 1 7.136 4.845 3 6.02361 -136946 -132446 -113830 27800.4 20011.7 -31008.3 -7.41381 
762 1 6.415 3.623 3 6.01966 -169461 -124649 -118078 24856.2 15392.9 -26428.4 -7.41352 
763 1 7.113 2.389 3 6.02292 -135469 -153079 -116603 -3155.93 11306.4 -31728.8 -7.41348 
764 1 6.392 1.168 3 6.02313 -125353 -122614 -119333 -7969.99 4467.95 -27855.6 -7.41263 
942 1 8.577 7.287 3 6.02329 -122105 -127029 -110288 -6916.72 26051.6 -27320.6 -7.41349 
944 1 8.554 4.831 3 6.02537 -137504 -172939 -113462 23199.5 18066.5 -30595.9 -7.41404 
945 1 9.251 3.597 3 6.01884 -141435 -153452 -110624 11903.2 14923.2 -37385.6 -7.41406 
946 1 8.531 2.375 3 6.019 -136510 -157056 -115140 25544.9 8529.92 -33041.9 -7.41383 
947 1 9.228 1.141 3 6.02521 -141034 -166980 -112931 9673.81 6430.92 -37550.7 -7.41406 
11192 2 0.628 8.602 6.4 6.0216 -124351 -132251 -113888 -31793.2 36732.4 -1889.05 -7.41371 
11193 2 0.651 6.146 6.4 6.02218 -134305 -148423 -119412 -17222.7 28617.7 -2519.37 -7.41315 
11194 2 0.674 3.691 6.4 6.02158 -133885 -145977 -123265 14267.1 18188.3 -3174.17 -7.41315 
11195 2 0.697 1.235 6.4 6.02425 -138458 -148002 -125046 10222.8 6321.97 -3569.72 -7.41299 
11196 2 0 0 6.4 6.02596 -121019 -131943 -125431 -2435.06 41.5976 6.61867 -7.4128 
11372 2 2.046 8.616 6.4 6.02329 -157645 -177055 -115276 -3521.24 33481 -9899.99 -7.41404 
11373 2 2.766 7.395 6.4 6.0204 -137857 -156718 -115753 16556.4 32104.2 -10477.5 -7.41365 
11374 2 2.069 6.16 6.4 6.02522 -150227 -142734 -119472 15488.8 26960.8 -10256.5 -7.41348 
11375 2 2.789 4.939 6.4 6.02308 -139244 -155147 -120494 15724.4 22859.8 -12167.2 -7.41327 
11376 2 2.092 3.704 6.4 6.02596 -138272 -130530 -122558 -2907.06 17683.2 -10469 -7.41312 
11377 2 2.813 2.483 6.4 6.0224 -172206 -119482 -123422 12826.2 11762.7 -13388.6 -7.41336 
11378 2 2.115 1.248 6.4 6.02345 -126922 -118856 -124310 7958.17 6220.92 -10591.8 -7.41278 
11379 2 2.836 0.027 6.4 6.02313 -125837 -117768 -124138 13650.4 -122.695 -14057.6 -7.41273 
11555 2 4.881 8.643 6.4 6.02141 -136569 -160944 -111858 18206.3 33564.8 -16322.4 -7.41364 
11556 2 4.184 7.408 6.4 6.02519 -143722 -127965 -115159 -3774.31 29921.3 -19117.7 -7.41342 
11557 2 4.905 6.187 6.4 6.0224 -170387 -123001 -116671 15059.9 25994.7 -19275.2 -7.41372 
11558 2 4.207 4.952 6.4 6.02329 -131331 -116439 -118950 7440.03 22319.8 -19937.5 -7.41303 
11559 2 4.928 3.731 6.4 6.02329 -123770 -123729 -119773 14602.9 16302.1 -21581.6 -7.41297 
11560 2 4.23 2.496 6.4 6.02241 -176479 -115689 -121655 7257.44 12167.6 -20321.8 -7.41345 
11561 2 4.951 1.275 6.4 6.02653 -132683 -135519 -121462 1000.62 5165.78 -23137.3 -7.41328 
11562 2 4.254 0.04 6.4 6.02445 -142074 -148994 -122664 8333.14 566.634 -20150.5 -7.41315 
11738 2 6.299 8.656 6.4 6.02329 -135519 -114579 -109138 6858.63 31464.4 -25897.8 -7.41356 
11739 2 7.02 7.435 6.4 6.02329 -122164 -127129 -112122 16826.2 27203.6 -23921.3 -7.4134 
11740 2 6.322 6.2 6.4 6.0224 -180561 -113700 -113437 6596.26 25624.4 -27507.5 -7.4139 
11741 2 7.043 4.979 6.4 6.02705 -130379 -139267 -115867 3295.03 19169.3 -27419.1 -7.4136 
11742 2 6.346 3.744 6.4 6.02657 -144573 -148715 -116881 6961.41 16980.4 -28505.6 -7.41372 
11743 2 7.066 2.523 6.4 6.02589 -138935 -154040 -117736 17388.7 9549.64 -29896.3 -7.41368 
11744 2 6.369 1.288 6.4 6.02233 -135178 -136781 -119117 -6031.64 6709.9 -28504.4 -7.41306 
11745 2 7.09 0.067 6.4 6.02164 -180417 -150090 -118097 5083.32 -956.721 -31440.7 -7.41397 
11921 2 9.135 8.683 6.4 6.02705 -128930 -142306 -107083 5299.41 26773.3 -25966.2 -7.41408 
11922 2 8.438 7.448 6.4 6.02657 -148658 -146969 -106954 6521.8 27333.2 -32654.8 -7.41427 
11923 2 9.158 6.227 6.4 6.02657 -137001 -157387 -110646 19596.5 20492.2 -30486.1 -7.41407 
11924 2 8.461 4.992 6.4 6.02705 -138843 -132230 -110645 -8559.69 20830.4 -34160.5 -7.41388 
11925 2 9.182 3.771 6.4 6.0224 -171491 -122604 -113240 18283.4 12183.2 -34028.2 -7.41392 
11926 2 8.484 2.536 6.4 6.02329 -129171 -123118 -113328 6137.12 12114.9 -34878.8 -7.41296 
11927 2 9.205 1.315 6.4 6.02292 -132271 -156863 -113833 5514.43 2881.54 -36420.4 -7.41363 
11928 2 8.507 0.081 6.4 6.01934 -171103 -120046 -115013 -27120.5 1900.76 -34471.9 -7.4138 
941 1 9.298 8.508 3 6.02329 -136787 -116873 -102744 -17087 26649.2 -33611.6 -7.41367 
943 1 9.275 6.052 3 6.02238 -178911 -117943 -106923 -19922.8 22044.4 -36031.5 -7.41414 
1124 1 10.716 8.495 3 6.02398 -136421 -158661 -105438 -1392.56 25370.1 -27618 -7.41435 
1125 1 11.413 7.26 3 6.02586 -143477 -131858 -99297.5 -5156.36 22466.4 -38484 -7.41428 
1126 1 10.692 6.039 3 6.0224 -170651 -124153 -108609 -716.887 19046.7 -31942.1 -7.41418 
1127 1 11.39 4.804 3 6.02329 -131365 -123243 -103192 -19436.2 17597.8 -40418.3 -7.41353 
1128 1 10.669 3.583 3 6.02292 -131013 -158794 -110103 11119.8 10935.5 -35227.4 -7.41383 
1129 1 11.367 2.349 3 6.01966 -174249 -122602 -106560 11003.5 10767.3 -41127.4 -7.41417 
1130 1 10.646 1.127 3 6.02409 -131266 -135962 -110288 39732.1 1705.26 -37531.9 -7.41401 
1307 1 13.551 8.468 3 6.02398 -149468 -149312 -91354.7 -18850.4 21841.8 -38507.1 -7.41514 
1308 1 12.831 7.247 3 6.02657 -139226 -155880 -103828 1150.8 18395.4 -30403 -7.41444 
1309 1 13.528 6.012 3 6.02657 -149413 -148675 -95481.9 -18079.4 18812.9 -40770.7 -7.4149 
1310 1 12.808 4.791 3 6.02398 -137999 -157140 -105232 -586.857 11843.1 -34558.6 -7.41436 
1311 1 13.505 3.556 3 6.02342 -141256 -136052 -99015.6 -9142.94 13802.4 -42100.1 -7.41406 
1312 1 12.784 2.335 3 6.02303 -172603 -122396 -105518 -5197.39 4145.6 -37722.3 -7.41435 
1313 1 13.482 1.1 3 6.02346 -125778 -123994 -101887 -22279.2 7300.05 -42038.7 -7.41383 
1490 1 14.969 8.455 3 6.02329 -121232 -126940 -99797.1 1306.85 16145.6 -26877.9 -7.41429 
1491 1 15.667 7.22 3 6.02329 -133382 -119371 -87217.2 -19772.1 18943.4 -39177.9 -7.41498 
1492 1 14.946 5.999 3 6.02587 -131850 -141371 -100912 14418.9 11345.4 -31414.2 -7.41421 
1493 1 15.643 4.764 3 6.02398 -145740 -152848 -91445.2 -20934.2 15515.3 -40719.7 -7.41512 
1494 1 14.923 3.543 3 6.02657 -141215 -154487 -101314 1615.59 5122.85 -35077.3 -7.41459 
1495 1 15.62 2.308 3 6.02673 -145780 -151824 -94764.4 -20135.4 10783.6 -41064.2 -7.41495 
1496 1 14.9 1.087 3 6.02398 -140212 -153323 -100113 -1547.48 -1763.2 -37630.5 -7.41464 
1673 1 17.805 8.428 3 6.02522 -151438 -148749 -79455 -24822.8 18197.4 -36143.8 -7.41578 
1674 1 17.085 7.207 3 6.02269 -138143 -158593 -97516.7 -429.308 9749.03 -26505.9 -7.41455 
1675 1 17.782 5.972 3 6.02586 -141515 -136226 -83407.9 -7827.98 16542.7 -37653.9 -7.41516 
1676 1 17.061 4.751 3 6.02329 -123125 -125615 -97410.6 1740.86 4831.03 -30468.9 -7.41442 
1677 1 17.759 3.516 3 6.02329 -129641 -122423 -87346.6 -21661.4 13338.7 -38228.6 -7.41497 
1678 1 17.038 2.295 3 6.02587 -134359 -139841 -96180 14607.3 -938.526 -33575.2 -7.41447 
1679 1 17.735 1.06 3 6.02413 -141675 -153269 -91046.4 -21484.4 8874.78 -37655.5 -7.41514 
12104 2 10.553 8.696 6.4 6.02705 -142850 -130658 -99375.9 -8867.64 27521.6 -35230.1 -7.4145 
12105 2 11.274 7.475 6.4 6.02241 -169655 -125453 -106117 20201.5 19896.6 -30681.6 -7.41432 
12106 2 10.576 6.24 6.4 6.02329 -134616 -119006 -103347 5570.56 22921.1 -37399.9 -7.41363 
12107 2 11.297 5.019 6.4 6.02329 -122706 -126677 -108094 24764.1 13460.1 -35166.4 -7.41362 
12108 2 10.599 3.784 6.4 6.02238 -176768 -120073 -106896 7190.75 16105.6 -38578.6 -7.41415 
12109 2 11.32 2.563 6.4 6.02537 -138607 -172743 -109081 -6146.44 5732.77 -38501.6 -7.41428 
12110 2 10.623 1.329 6.4 6.01884 -139618 -155408 -109175 -26005.7 7528.44 -38679.9 -7.41416 
12111 2 11.343 0.107 6.4 6.01916 -137560 -154806 -108549 -8357.43 -2677.12 -40528.3 -7.41417 
12287 2 13.389 8.723 6.4 6.02329 -120935 -128787 -101627 26233.9 18029.3 -28283.8 -7.41397 
12288 2 12.691 7.488 6.4 6.02238 -180725 -118532 -95448.6 7020.1 23648.1 -38126.2 -7.41477 
12289 2 13.412 6.267 6.4 6.02537 -136381 -175319 -103537 -4370.99 13131 -33472.8 -7.41458 
12290 2 12.715 5.033 6.4 6.01884 -143989 -154402 -99173 -25927.6 18805.6 -39673.8 -7.41457 
12291 2 13.435 3.811 6.4 6.02345 -136722 -157629 -104371 -7374.75 6924.47 -37642 -7.41454 
12292 2 12.738 2.577 6.4 6.02361 -135134 -136756 -102372 -41189.4 12002.3 -40183.2 -7.41444 
12293 2 13.459 1.355 6.4 6.01982 -171022 -125883 -103767 -8796.58 -151.202 -40605.6 -7.41433 
12294 2 12.761 0.121 6.4 6.02292 -133380 -154991 -104533 -12691.8 4177.79 -39579.8 -7.41414 
12470 2 14.807 8.737 6.4 6.01884 -147747 -152818 -87219.6 -26053.9 23016.8 -36890.3 -7.41523 
12471 2 15.527 7.515 6.4 6.02345 -135257 -159701 -99572.9 -6247.76 11785.9 -29493.1 -7.41467 
12472 2 14.83 6.281 6.4 6.02114 -138942 -135191 -91249.8 -41215.5 20112.9 -38654.8 -7.41506 
12473 2 15.551 5.059 6.4 6.01966 -167718 -127888 -100103 -7392.15 6781.89 -34299.5 -7.41463 
12474 2 14.853 3.825 6.4 6.02294 -137460 -155759 -94708.3 -11471.8 15266.2 -39433.7 -7.41467 
12475 2 15.574 2.604 6.4 6.02329 -123188 -128946 -99265 25384 962.204 -37814.2 -7.41398 
12476 2 14.876 1.369 6.4 6.0232 -175797 -120916 -97885.1 5063.12 8955.92 -39152.5 -7.41476 
12477 2 15.597 0.148 6.4 6.02342 -137372 -136737 -97512.1 12401.1 -5094.29 -40167.2 -7.41414 
12653 2 17.643 8.763 6.4 6.01966 -167020 -126172 -96645.2 -6461.42 9396.24 -24113.9 -7.41494 
12654 2 16.945 7.529 6.4 6.02169 -133677 -121519 -83014.9 -28831.3 20291.4 -35990.8 -7.41499 
12655 2 17.666 6.307 6.4 6.0211 -119748 -131214 -96861.5 -6594.37 5785.53 -28969.9 -7.41412 
12656 2 16.968 5.073 6.4 6.02148 -186490 -153007 -87062 -12000.6 17087.8 -36857.5 -7.41567 
12657 2 17.689 3.852 6.4 6.02166 -133409 -143370 -95703.1 12862.7 1202.01 -33007.4 -7.41412 
12658 2 16.992 2.617 6.4 6.02397 -144014 -154164 -90890.5 381.093 12438.6 -36817 -7.41515 
12659 2 17.712 1.396 6.4 6.02657 -142500 -154116 -93812.2 21835.6 -3907.48 -35934.2 -7.41499 
12660 2 17.015 0.161 6.4 6.02688 -143697 -150770 -93969.2 -2901.74 6872.34 -35725 -7.41498 
1856 1 19.223 8.414 3 6.02179 -127956 -144725 -95299.4 44791.4 7242.72 -20633.2 -7.41438 
1857 1 19.92 7.18 3 6.02304 -154910 -186121 -75717.3 -10246.1 16852.4 -33581.5 -7.4163 
1858 1 19.2 5.959 3 6.0204 -138132 -157422 -94753 -781.751 3635.73 -24665 -7.41482 
1859 1 19.897 4.724 3 6.02522 -147776 -151467 -80213.4 -26465.8 14933.7 -34140.9 -7.41573 
1860 1 19.177 3.503 3 6.02269 -140372 -157314 -93136.6 -249.592 -890.933 -28007.6 -7.41478 
1861 1 19.874 2.268 3 6.02587 -137959 -138453 -84216.9 -9395.76 11864.2 -33882.4 -7.41512 
1862 1 19.153 1.047 3 6.02313 -125429 -121880 -90558 516.975 -5910.93 -30691.5 -7.41479 
2039 1 22.059 8.388 3 6.02179 -140813 -138813 -68398.9 20257.5 17018.7 -29645.9 -7.41597 
2040 1 21.338 7.166 3 6.0211 -119757 -125515 -92937.4 31686.1 1766.69 -18597.6 -7.41478 
2041 1 22.036 5.932 3 6.02169 -131210 -122508 -72986.3 6604.54 16184.6 -29807.8 -7.41575 
2042 1 21.315 4.71 3 6.02179 -130012 -143537 -90922.5 44971.2 -1771.57 -21857 -7.41461 
2043 1 22.012 3.476 3 6.02304 -151205 -188138 -77645.5 -11550.9 14077.5 -29376.3 -7.41618 
2044 1 21.292 2.255 3 6.02169 -142334 -156484 -88364.9 1090.97 -5721.66 -24672.4 -7.41492 
2045 1 21.989 1.02 3 6.02589 -143998 -150859 -82147.2 -21302.5 11185.3 -28295.4 -7.41562 
2222 1 23.477 8.374 3 6.02486 -144299 -187039 -92039.6 15235.1 65.7478 -13161.3 -7.41537 
2223 1 24.174 7.14 3 6.02023 -148021 -153946 -66299.4 6813.13 17322.1 -25940.6 -7.41636 
2224 1 23.454 5.918 3 6.02215 -135878 -156723 -89973.3 31382.4 -2819.4 -15983 -7.41518 
2225 1 24.151 4.684 3 6.02241 -138591 -138051 -71262.5 19050.2 16118.6 -25175.9 -7.41593 
2226 1 23.43 3.462 3 6.0211 -120708 -126886 -86989.4 31924.1 -6333.76 -18676.3 -7.41497 
2227 1 24.128 2.228 3 6.02292 -135113 -156260 -76181.9 -11547.5 13960.7 -24067.5 -7.4159 
2228 1 23.407 1.007 3 6.02294 -134879 -139380 -83377.3 12426 -9850.54 -21001.4 -7.41478 
2405 1 26.313 8.347 3 6.02329 -135598 -121206 -59716.4 -25403.3 18820.5 -23283.3 -7.41623 
2406 1 25.592 7.126 3 6.02587 -129747 -138275 -89932.7 10364.4 -3935.91 -11284.8 -7.41477 
2407 1 26.289 5.891 3 6.02041 -145165 -155790 -65188.7 -28198.4 18135.8 -21910.6 -7.41643 
2408 1 25.569 4.67 3 6.02487 -146521 -186081 -86638.5 15309.2 -6875 -13458.1 -7.41567 
2409 1 26.266 3.436 3 6.02023 -144262 -155053 -70574.6 6264.63 16506.8 -20538 -7.41612 
2410 1 25.546 2.214 3 6.01937 -136525 -157602 -82671 31361 -10080.7 -15634.2 -7.41558 
2411 1 26.243 0.98 3 6.02489 -141903 -168959 -75836.5 2632.9 14161.3 -18889.7 -7.41599 
2588 1 27.731 8.334 3 6.02397 -134418 -153800 -90476.7 1074.98 -4489.42 -8209.78 -7.41513 
2590 1 27.707 5.878 3 6.02329 -121225 -122183 -86971 1942.98 -7372.58 -9837.09 -7.41496 
2592 1 27.684 3.422 3 6.02586 -132222 -137436 -82790.6 10387.3 -10377.6 -11484.1 -7.41516 
2594 1 27.661 0.966 3 6.02519 -148311 -182380 -78146.8 13847.5 -13401.2 -13322.2 -7.41625 
12836 2 19.06 8.777 6.4 6.02151 -190092 -151303 -74915.3 -12086.4 19571.5 -32557.9 -7.41634 
12837 2 19.781 7.556 6.4 6.0204 -129358 -143254 -94658.3 15243.1 4000.98 -22746.9 -7.41442 
12838 2 19.084 6.321 6.4 6.02395 -147370 -152413 -79387.2 5453.72 18106.1 -33201.8 -7.41577 
12839 2 19.804 5.1 6.4 6.02413 -141135 -155665 -93148.5 24531 482.984 -26842.7 -7.41477 
12840 2 19.107 3.865 6.4 6.02589 -147731 -151460 -83642.9 -1555.48 15010.3 -33180.7 -7.41554 
12841 2 19.827 2.644 6.4 6.02398 -138901 -157005 -91099.5 23936.5 -3599.52 -30149.9 -7.41514 
12842 2 19.13 1.409 6.4 6.02602 -137557 -138349 -87473.9 -14558.8 10751.4 -32360 -7.41495 
12843 2 19.851 0.188 6.4 6.02313 -125696 -121999 -87919.5 24323.8 -7924.32 -32582.5 -7.41493 
13019 2 21.896 8.804 6.4 6.02413 -138627 -155219 -93489.3 24496.7 2366.7 -16522.6 -7.41475 
13020 2 21.199 7.569 6.4 6.02589 -151283 -149740 -71848.6 -1578.87 18353.1 -29315.5 -7.41619 
13021 2 21.919 6.348 6.4 6.02397 -136062 -157031 -91765.6 24258.1 -548.056 -20335.3 -7.41509 
13022 2 21.222 5.113 6.4 6.02587 -141069 -136856 -76277.4 -14475.5 16672.4 -29096.5 -7.41555 
13023 2 21.943 3.892 6.4 6.02329 -122951 -124945 -89445.3 23732.4 -4132.38 -23778.8 -7.41485 
13024 2 21.245 2.657 6.4 6.02329 -129251 -122689 -80776.8 -1641.62 13788.2 -28326.5 -7.41532 
13025 2 21.966 1.436 6.4 6.02587 -134474 -139573 -86004.5 10350.5 -7672.98 -26451.6 -7.41502 
13026 2 21.269 0.201 6.4 6.02301 -142951 -153597 -84936.9 -924.033 9941.06 -26800.2 -7.41522 
13202 2 23.314 8.817 6.4 6.02587 -144530 -135187 -64987.3 -14558.7 18619.7 -26009.1 -7.41617 
13203 2 24.035 7.596 6.4 6.02329 -120120 -124307 -91356.7 23506.8 -1645.92 -14560.6 -7.41473 
13204 2 23.337 6.361 6.4 6.02329 -132817 -121029 -69404.4 -1624.48 17856.6 -25300.7 -7.41595 
13205 2 24.058 5.14 6.4 6.02587 -131203 -139547 -88692.9 10427.8 -4599.83 -17533.2 -7.41486 
13206 2 23.361 3.905 6.4 6.02397 -145247 -153864 -74276.7 -1419.86 15950 -24230 -7.41606 
13207 2 24.081 2.684 6.4 6.02589 -141013 -153467 -85196.8 22939.2 -7876.61 -20231.5 -7.41545 
13208 2 23.384 1.449 6.4 6.02185 -145574 -155051 -79024.2 -1025.84 13206.4 -22890.2 -7.41543 
13209 2 24.104 0.228 6.4 6.0232 -147142 -186629 -80851.4 13425.1 -11040.4 -22394.5 -7.41599 
13385 2 26.15 8.844 6.4 6.02587 -128460 -138447 -91281.6 9781.59 -2239.27 -10029.3 -7.4147 
13386 2 25.453 7.609 6.4 6.02397 -148740 -152321 -62996 -1439.22 18958.5 -22491.1 -7.41667 
13387 2 26.173 6.388 6.4 6.02589 -137911 -152744 -88557.4 22518.8 -5058.99 -12441.9 -7.41525 
13388 2 25.476 5.153 6.4 6.02413 -150434 -151269 -68261.5 -1227.62 17992.3 -21016 -7.41613 
13389 2 26.196 3.932 6.4 6.02304 -136981 -155052 -85191.1 29187.4 -8091.96 -14796.8 -7.41543 
13390 2 25.499 2.697 6.4 6.02166 -137111 -139827 -73212.4 -11725.6 15937.9 -19428.3 -7.41559 
13391 2 26.22 1.476 6.4 6.02294 -131418 -156427 -80801 11684.1 -11293.8 -16977.4 -7.41564 
13392 2 25.522 0.242 6.4 6.02078 -123296 -123359 -78085.1 -33105.7 13254.8 -17639.6 -7.41545 
13568 2 27.568 8.857 6.4 6.02657 -152141 -149558 -56719.5 -3055.2 20232 -21303.5 -7.41701 
13570 2 27.591 6.401 6.4 6.0231 -142092 -139061 -61994.4 -13562.5 19830.1 -19210.5 -7.41595 
13572 2 27.614 3.946 6.4 6.0211 -127826 -124796 -67425.4 -31595.9 18489.5 -17201.3 -7.41592 
13574 2 27.638 1.49 6.4 6.01905 -141187 -153990 -73229.7 -31139.6 16257.4 -15222.4 -7.41622 
2589 1 28.428 7.099 3 6.02586 -142071 -136414 -59034.8 -10580.9 20353.6 -20268.4 -7.41648 
2591 1 28.405 4.643 3 6.02329 -131824 -122122 -64857.8 -25650.8 19250.6 -18360.2 -7.41594 
2593 1 28.381 2.187 3 6.02072 -141349 -156144 -70785.4 -28224.5 17134.9 -16386.1 -7.41611 
2771 1 30.566 8.307 3 6.02397 -148362 -152787 -52935.1 -24371.5 22999.5 -20305.3 -7.41722 
2772 1 29.846 7.086 3 6.02657 -137293 -150699 -87844.1 2180.94 -7242.45 -7971.89 -7.41526 
2773 1 30.543 5.851 3 6.02657 -148429 -150767 -59327.2 -22926.2 22073.1 -17817.3 -7.41686 
2774 1 29.823 4.63 3 6.02398 -136697 -153299 -83762.2 1101.13 -10316.6 -9126.67 -7.4155 
2775 1 30.52 3.395 3 6.02586 -138116 -136906 -65477.1 -10353.9 20181.4 -15619.4 -7.41611 
2776 1 29.799 2.174 3 6.02329 -124009 -121401 -78904.9 1908.45 -13538.9 -10633.6 -7.4154 
2777 1 30.497 0.939 3 6.02343 -125960 -122448 -71423.5 -24238.5 17614.4 -13665 -7.41543 
2954 1 31.984 8.294 3 6.02329 -120467 -121084 -88751.8 -1144.19 -6638.51 -8158.72 -7.41459 
2955 1 32.682 7.059 3 6.02329 -132038 -121362 -53223.6 -23553.3 25232.9 -19163.4 -7.41682 
2956 1 31.961 5.838 3 6.02586 -129936 -136150 -84844.2 14258.7 -9850.67 -8693.1 -7.41503 
2957 1 32.658 4.603 3 6.02398 -144443 -153333 -59977 -23927.3 23442.3 -16509.7 -7.41681 
2958 1 31.938 3.382 3 6.02657 -139777 -150454 -80116.3 2146.38 -13216.7 -9691.93 -7.41569 
2959 1 32.635 2.147 3 6.02673 -144459 -150849 -66291.8 -22276.4 20851.1 -14233.3 -7.41646 
2960 1 31.915 0.926 3 6.02322 -139121 -150595 -74720.1 -171.301 -16465.3 -11060.4 -7.41598 
3137 1 34.82 8.267 3 6.02486 -156968 -184790 -46872.1 -10214.5 28653.5 -22011.9 -7.41786 
3138 1 34.1 7.046 3 6.02141 -134361 -155267 -85835.6 -2334.81 -8684.29 -10051.9 -7.415 
3139 1 34.797 5.811 3 6.02587 -139837 -137110 -53723.2 -9715.62 26984.3 -19026.4 -7.41676 
3140 1 34.076 4.59 3 6.02329 -121078 -120767 -81193 582.121 -12376.8 -10534.6 -7.41525 
3141 1 34.774 3.355 3 6.02329 -127892 -121785 -60815.6 -22743.1 24426.7 -16463.1 -7.41638 
3142 1 34.053 2.134 3 6.02587 -132668 -136095 -75961.9 14161.7 -16083.5 -11522.8 -7.41552 
3143 1 34.75 0.899 3 6.02413 -139826 -151194 -67753.3 -21708 20981.7 -14323.1 -7.41636 
3320 1 36.238 8.253 3 6.02179 -124743 -139068 -86407.6 42355.6 -6998.15 -12860.2 -7.41492 
3321 1 36.935 7.019 3 6.02303 -152899 -187942 -47394.2 -10868 30693.2 -22730.5 -7.41782 
3322 1 36.215 5.798 3 6.0204 -135706 -152707 -82204.6 -3230.56 -10902.9 -12876.4 -7.41543 
3323 1 36.912 4.563 3 6.02522 -145640 -151767 -54867 -26423.2 28125.7 -19940 -7.41708 
3324 1 36.192 3.342 3 6.02269 -138147 -153391 -77048 -2241.25 -15008.1 -13433.4 -7.4156 
3325 1 36.889 2.107 3 6.02587 -135717 -137355 -62051.6 -8623.3 24687.9 -17674.6 -7.41629 
3326 1 36.168 0.886 3 6.02313 -123429 -118987 -70906.3 -791.104 -19147.7 -14595.5 -7.41581 
13569 2 28.288 7.636 6.4 6.02306 -134302 -154091 -89281.3 23353.6 -4989.68 -9015.24 -7.4152 
13571 2 28.312 5.18 6.4 6.02292 -127948 -155876 -85406.8 11092.6 -8130.11 -10837 -7.41536 
13573 2 28.335 2.724 6.4 6.02313 -131823 -138748 -81135.4 -19266.7 -11319.6 -12709.4 -7.41524 
13575 2 28.358 0.268 6.4 6.02055 -139348 -152408 -76304.3 -5414.48 -14378.7 -14588.1 -7.41591 
13751 2 30.404 8.884 6.4 6.02329 -117993 -121271 -90237.2 27228.9 -4428.39 -7673.03 -7.41476 
13752 2 29.706 7.649 6.4 6.02327 -132127 -122941 -55942.6 1535.86 21911.7 -19163 -7.41655 
13753 2 30.427 6.428 6.4 6.02487 -136124 -170439 -86576 -2846.64 -7589.48 -8756.02 -7.41525 
13754 2 29.73 5.194 6.4 6.01659 -143058 -155765 -61983 -31266.1 20918.1 -16590.6 -7.41671 
13755 2 30.45 3.972 6.4 6.02237 -137600 -151686 -82199 -7228.42 -10977.9 -10132.7 -7.4157 
13756 2 29.753 2.738 6.4 6.02452 -145113 -151558 -67839 -32556 19057.2 -14348.2 -7.41638 
13757 2 30.473 1.516 6.4 6.01691 -136605 -156871 -77017.9 -5495.55 -14366.3 -11774.1 -7.41575 
13758 2 29.776 0.282 6.4 6.02487 -141966 -168024 -73592.2 -28750 16536.8 -12377.6 -7.41598 
13934 2 31.822 8.898 6.4 6.01659 -146976 -155739 -49645.7 -30891.2 24346.2 -20785.1 -7.41727 
13935 2 32.542 7.676 6.4 6.02452 -134554 -150899 -87557.1 -8242.44 -6465.5 -8654.77 -7.41539 
13936 2 31.845 6.442 6.4 6.02452 -147851 -150729 -55939.3 -32269.6 23611.5 -17827.1 -7.41716 
13937 2 32.565 5.22 6.4 6.01659 -133039 -156431 -83417.2 -6515.27 -10154.9 -9535.2 -7.41538 
13938 2 31.868 3.986 6.4 6.02486 -145762 -169868 -62457.8 -27427.4 21974.9 -15171.3 -7.41659 
13939 2 32.589 2.765 6.4 6.02327 -121049 -123858 -78295.9 26400.5 -14018.7 -10784.1 -7.41529 
13940 2 31.891 1.53 6.4 6.02345 -126830 -120889 -68708.1 3179.27 19534.3 -12946.5 -7.41596 
13941 2 32.612 0.309 6.4 6.02486 -135264 -134962 -72552.5 12588.6 -17628.7 -12326.4 -7.41546 
14117 2 34.657 8.924 6.4 6.01659 -129651 -155553 -88675 -7730.72 -4756.36 -10396 -7.4152 
14118 2 33.96 7.69 6.4 6.02487 -149146 -169956 -49734.1 -27221.3 26564.9 -20631.3 -7.4173 
14119 2 34.681 6.469 6.4 6.02327 -117781 -123451 -84390.8 25333.2 -8814.93 -10756.2 -7.41495 
14120 2 33.983 5.234 6.4 6.02329 -130094 -121080 -56461.6 3338.02 25040 -17626.5 -7.41662 
14121 2 34.704 4.013 6.4 6.02487 -132025 -137031 -79399.2 10276.5 -12967.9 -11508.2 -7.41507 
14122 2 34.007 2.778 6.4 6.02306 -142786 -152995 -63387.3 -955.955 22640.8 -15058.8 -7.41661 
14123 2 34.727 1.557 6.4 6.02657 -140493 -150767 -73937.7 21248.5 -17113.4 -12695.1 -7.41603 
14124 2 34.03 0.322 6.4 6.02688 -142272 -148246 -69957.3 -3311.13 19588.1 -13022.8 -7.41624 
14300 2 36.075 8.938 6.4 6.02292 -140563 -155300 -42550.1 -13405.8 29824.3 -24677.5 -7.41773 
14301 2 36.796 7.717 6.4 6.0231 -127655 -139466 -85146.9 9547.83 -6851.69 -13453.2 -7.41463 
14302 2 36.099 6.482 6.4 6.02306 -146171 -153593 -50270.4 -694.904 28385.1 -21333.3 -7.41734 
14303 2 36.819 5.261 6.4 6.02657 -136956 -150915 -80547.9 20128.5 -11334.4 -13736.5 -7.41565 
14304 2 36.122 4.026 6.4 6.02657 -146054 -151086 -57578.8 -1871.39 25984.6 -18554.7 -7.41693 
14305 2 36.842 2.805 6.4 6.02397 -136441 -153566 -75102.9 21800 -15969.5 -14547.2 -7.41595 
14306 2 36.145 1.57 6.4 6.02602 -135746 -136639 -64432.5 -14039.7 22839.8 -16267.6 -7.41616 
14307 2 36.866 0.349 6.4 6.02313 -123363 -119654 -68679.5 22826.6 -20599.4 -15873 -7.41593 
3503 1 39.074 8.227 3 6.02179 -139218 -142547 -39886.8 20764.7 34355.3 -27195.1 -7.4174 
3504 1 38.353 7.005 3 6.02169 -117192 -121946 -82488.4 28429.4 -9057.73 -16341.4 -7.41528 
3505 1 39.051 5.771 3 6.02169 -128064 -123996 -47848.5 7665.34 32008.9 -24355 -7.41722 
3506 1 38.33 4.549 3 6.02179 -127449 -140452 -77535.3 41851.5 -13499.8 -16562.4 -7.41528 
3507 1 39.027 3.315 3 6.02303 -148610 -188580 -55794.3 -9723 28527.8 -21883.3 -7.41734 
3508 1 38.307 2.094 3 6.0204 -138296 -153558 -71903.1 -3484.81 -17949.3 -17238 -7.41601 
3509 1 39.004 0.859 3 6.02505 -140930 -150001 -63145.2 -23952.8 24257.1 -19910.8 -7.4166 
3686 1 40.492 8.213 3 6.02522 -134751 -151823 -82234.2 -5466.83 -6747.53 -20150.3 -7.41554 
3687 1 41.189 6.978 3 6.0204 -146238 -156842 -40129.7 -23796.5 35751.4 -28901.6 -7.41778 
3688 1 40.469 5.757 3 6.02303 -140814 -188006 -77741.8 10295.3 -11325 -20185 -7.41611 
3689 1 41.166 4.523 3 6.02179 -134223 -143044 -48644.5 22165 32457.4 -26497.2 -7.41701 
3690 1 40.445 3.301 3 6.0211 -119397 -123365 -72252.3 28029.4 -16364.1 -20695.4 -7.41585 
3691 1 41.143 2.067 3 6.02169 -124512 -125014 -56468.3 9107.3 28181.4 -24509.8 -7.41662 
3692 1 40.422 0.845 3 6.02227 -129630 -139576 -66000.6 40240.5 -21326.1 -21662.3 -7.41591 
3869 1 43.328 8.186 3 6.02241 -179321 -125500 -31628 -19365.4 39115.6 -33047.3 -7.41838 
3870 1 42.607 6.965 3 6.02519 -128301 -138686 -77315.9 10451.1 -9111.45 -23810.6 -7.41543 
3871 1 43.304 5.73 3 6.02141 -143569 -161178 -40650.6 -22259.1 36184.2 -30830.8 -7.41751 
3872 1 42.584 4.509 3 6.02486 -143729 -187177 -72210.7 11083.4 -14220.3 -24184.7 -7.41642 
3873 1 43.281 3.275 3 6.02023 -140955 -158818 -49123.2 10564 32085.4 -28899.1 -7.41727 
3874 1 42.561 2.053 3 6.02247 -135648 -156979 -66084.8 27080.3 -19572.1 -24875.8 -7.41645 
3875 1 43.258 0.819 3 6.02225 -131007 -139275 -56793 24441.7 27021.3 -27421.6 -7.41667 
4052 1 44.745 8.173 3 6.0224 -165794 -124353 -76302.3 -1753.18 -6880.01 -26735.7 -7.41588 
4053 1 45.443 6.938 3 6.02329 -129787 -129770 -31659.7 -18048.9 39577.1 -34279.7 -7.4178 
4054 1 44.722 5.717 3 6.02329 -119151 -127221 -71255 -1782.02 -11995.5 -27162.6 -7.41557 
4055 1 45.42 4.482 3 6.02241 -176496 -127187 -40651.2 -19969.5 35828.3 -32695.3 -7.41762 
4056 1 44.699 3.261 3 6.02519 -129899 -140720 -65490.4 4648 -17493.6 -27816.2 -7.41608 
4057 1 45.396 2.026 3 6.02072 -137790 -161734 -49328.6 -22900.5 30925.1 -31316.7 -7.41727 
4058 1 44.676 0.805 3 6.02519 -145742 -187013 -59205.1 9172.31 -23188.7 -28818.7 -7.41715 
14483 2 38.911 8.965 6.4 6.02413 -136134 -151819 -85323.3 21231.6 -4536.57 -17028.4 -7.41513 
14484 2 38.214 7.73 6.4 6.02589 -149436 -152252 -42915.2 -1435.7 31903.1 -25910.1 -7.41776 
14485 2 38.934 6.509 6.4 6.02398 -133399 -153921 -80985.4 20848.8 -9256.93 -17145.1 -7.41562 
14486 2 38.237 5.274 6.4 6.02587 -139018 -137917 -50588.4 -13701.7 29598.4 -22993.4 -7.41692 
14487 2 38.958 4.053 6.4 6.02329 -120199 -122366 -75782.5 20458.2 -14381.6 -17634.3 -7.41553 
14488 2 38.26 2.818 6.4 6.02329 -127020 -122398 -58308.9 -172.991 26376.4 -20508.2 -7.41651 
14489 2 38.981 1.597 6.4 6.02587 -131713 -137783 -69837.7 7433.78 -19409.8 -18495.1 -7.41585 
14490 2 38.284 0.362 6.4 6.02188 -139134 -154587 -65582.2 1477.94 22331.2 -18578.1 -7.41611 
14666 2 40.329 8.978 6.4 6.02587 -142434 -139540 -35043.5 -13057.5 35471.1 -30717.7 -7.4178 
14667 2 41.05 7.757 6.4 6.02329 -117631 -123241 -80763.8 19771.9 -7001.86 -20994.4 -7.41526 
14668 2 40.352 6.522 6.4 6.02329 -130440 -123979 -43248.7 331.083 33285.3 -27798.1 -7.41736 
14669 2 41.073 5.301 6.4 6.02586 -128421 -138706 -75990.2 6474.29 -12190.4 -21250.7 -7.41549 
14670 2 40.376 4.066 6.4 6.02398 -142665 -155526 -51373.3 1052.59 30007 -25182.1 -7.41727 
14671 2 41.096 2.845 6.4 6.02589 -138049 -153086 -70299.8 19015.4 -17671.5 -21908.6 -7.41621 
14672 2 40.399 1.61 6.4 6.02185 -142855 -155617 -58901.7 1954.37 25949.8 -23174.7 -7.41649 
14673 2 41.119 0.389 6.4 6.0232 -144077 -186968 -63932.2 9712.41 -23099.2 -23004.4 -7.41688 
14849 2 43.165 9.005 6.4 6.02586 -126472 -139970 -79922.6 6144.22 -4628.67 -24548.1 -7.41528 
14850 2 42.468 7.77 6.4 6.02397 -146120 -157482 -35003.9 1742.3 36876 -32278.9 -7.4182 
14851 2 43.188 6.549 6.4 6.02589 -135381 -154283 -75528.7 18344.3 -9838 -24899.9 -7.41592 
14852 2 42.491 5.314 6.4 6.02413 -147530 -155245 -43666.6 2297.84 33804 -29846.3 -7.41745 
14853 2 43.211 4.093 6.4 6.02303 -134044 -156795 -70376.2 24705.3 -15474.9 -25405.8 -7.41621 
14854 2 42.514 2.858 6.4 6.02166 -134059 -142781 -51769.8 -7880.27 29730.3 -27730.2 -7.41673 
14855 2 43.235 1.637 6.4 6.02294 -128209 -158609 -64008.8 7111.63 -21443.2 -26310.4 -7.41652 
14856 2 42.537 0.403 6.4 6.02078 -120206 -125537 -59007.7 -28966.3 24921.9 -26121.5 -7.41645 
15032 2 44.583 9.018 6.4 6.02413 -151016 -157496 -25952.5 3133.4 40062.8 -35921.9 -7.41846 
15033 2 45.303 7.797 6.4 6.02303 -131991 -158256 -74586.7 24375.4 -7527.47 -27897.1 -7.41598 
15034 2 44.606 6.562 6.4 6.02166 -137460 -144993 -34987.4 -7135.25 37446.1 -33782.3 -7.41768 
15035 2 45.327 5.341 6.4 6.02295 -125342 -160194 -69378.9 6459.35 -13223.3 -28533.5 -7.41622 
15036 2 44.629 4.107 6.4 6.0211 -124527 -130399 -43469.7 -26835.1 33594.3 -31868.4 -7.41721 
15037 2 45.35 2.885 6.4 6.02316 -128032 -142925 -63531.5 -24122.6 -19211.2 -29251 -7.41631 
15038 2 44.653 1.651 6.4 6.02152 -137818 -158815 -51823.4 -26262.9 28649.9 -30139.5 -7.41737 