ITEM: TIMESTEP
0
ITEM: NUMBER OF ATOMS
1352
ITEM: BOX BOUNDS pp pp pp
0.0000000000000000e+00 3.1928000000000001e+01
0.0000000000000000e+00 5.5300918199999998e+01
0.0000000000000000e+00 1.5000000000000000e+01
ITEM: ATOMS id type x y z c_csym c_2[1] c_2[2] c_2[3] c_2[4] c_2[5] c_2[6] c_3 
47 1 1.039 8.562 3 6.02218 -147080 -126933 -97960.3 -16211.8 7603.52 -7708.85 -7.41446 
48 1 0.283 7.363 3 6.01928 -125213 -145031 -44217.8 -27462.7 31954.3 399.867 -7.41715 
49 1 0.945 6.108 3 6.02403 -136375 -82103.2 -98631.5 -13961.2 10885.7 -4897.85 -7.41433 
50 1 0.189 4.908 3 6.02502 -127456 -161191 -73866.8 17862.1 40236.4 -5163.78 -7.41579 
51 1 0.85 3.654 3 6.02801 -148532 -137885 -105580 10881.1 31209 -7483.38 -7.41412 
52 1 0.094 2.454 3 6.02183 -171173 -137819 -110791 2413.94 39329.4 -3562.38 -7.41407 
53 1 0.756 1.2 3 6.02333 -132521 -127077 -121769 -1529.21 20532 -13527.6 -7.41315 
54 1 0 0 3 6.02606 -133891 -149774 -126958 15455 -6.63218 37.7657 -7.41305 
93 1 2.456 8.508 3 6.02484 -122463 -128918 -43465.4 7561.55 34501.6 15001.4 -7.41709 
94 1 3.117 7.253 3 6.022 -160962 -143987 -82297 -33435.8 1793.82 -17241.7 -7.41552 
95 1 2.362 6.054 3 6.02288 -140998 -171846 -66238.6 -24511 29222.2 2439.45 -7.41629 
96 1 3.023 4.799 3 6.02288 -146654 -101256 -80656.4 -4454.09 10923.2 -22005.6 -7.41506 
97 1 2.267 3.599 3 6.02264 -129676 -153571 -95285.8 27451.2 37665.2 -15469 -7.41509 
98 1 2.928 2.345 3 6.02372 -155534 -160442 -92791.1 -2256.75 20808.4 -36369.8 -7.41475 
99 1 2.173 1.145 3 6.02128 -139058 -170517 -115568 9225.74 18333.6 -29062.7 -7.41417 
138 1 5.29 8.399 3 6.02379 -146356 -135908 -58353.5 11399.6 7948.49 -33478.9 -7.41687 
139 1 4.534 7.199 3 6.02414 -129726 -152657 -73218.2 26551.9 20929.3 8829.77 -7.41586 
140 1 5.195 5.945 3 6.02052 -157728 -154731 -54569.8 -6917.92 3525.03 -28953.3 -7.41708 
141 1 4.44 4.745 3 6.02288 -132734 -135927 -91793.5 -716.323 16953.1 -3514.25 -7.41459 
142 1 5.101 3.49 3 6.02173 -151521 -138118 -57433.2 -25495.1 12171.3 -30760.4 -7.41669 
143 1 4.345 2.291 3 6.0206 -136380 -145681 -102330 -3012.19 13663.5 -20031.5 -7.41474 
144 1 5.006 1.036 3 6.02294 -141963 -135359 -77422.7 -27320 13328.8 -36371.8 -7.41542 
183 1 6.707 8.344 3 6.0217 -138982 -164247 -76277.1 11809.2 25979.1 -3588.67 -7.41591 
184 1 7.368 7.09 3 6.02666 -149047 -146637 -28084.6 6493.74 12352 -46799.1 -7.41844 
185 1 6.612 5.89 3 6.02368 -118831 -132282 -94408.3 11252.8 8264.91 -5131.31 -7.41466 
186 1 7.274 4.636 3 6.02183 -189370 -127693 -32704.6 -8574.3 17093.2 -32666.5 -7.41857 
187 1 6.518 3.436 3 6.02469 -121069 -116068 -100364 13599.6 869.155 -6894.24 -7.41416 
188 1 7.179 2.181 3 6.0211 -145843 -145816 -49531 -28035.5 21736.8 -22603.1 -7.41685 
189 1 6.423 0.982 3 6.02062 -131392 -132111 -88124.8 -14648.5 -9250.23 -12231.9 -7.41506 
228 1 9.541 8.235 3 6.02403 -141043 -104417 12652 -14922.1 13624.2 -57989.4 -7.42041 
229 1 8.785 7.035 3 6.02502 -126906 -147970 -90442.1 28548.6 14183.7 -18071.7 -7.41507 
230 1 9.446 5.781 3 6.02801 -150650 -154928 -3461.35 4234.58 25080.2 -47766.5 -7.41986 
231 1 8.69 4.581 3 6.02217 -165995 -130722 -97171.8 12425.5 2063.73 -16149.3 -7.41479 
232 1 9.352 3.327 3 6.02334 -136957 -135766 -25563.4 -9010.52 34596.5 -31760.3 -7.41865 
233 1 8.596 2.127 3 6.02666 -127746 -148594 -89745.4 29933 -8630.38 -12463.6 -7.41503 
234 1 9.257 0.873 3 6.02073 -147508 -167576 -55845.4 -9160.66 28972.9 -19806.2 -7.41685 
681 2 0.378 8.617 6.4 6.02414 -131130 -165727 -32757.3 -18289.5 36784.2 1399.54 -7.41803 
682 2 0.472 6.163 6.4 6.02288 -133598 -146099 -57168.9 12356.3 32656.2 4798.43 -7.41603 
683 2 0.567 3.709 6.4 6.0206 -135871 -150453 -92872.6 17820.6 41859.8 253.199 -7.41488 
684 2 0.661 1.254 6.4 6.02129 -141091 -164321 -121958 580.011 22150 -10767 -7.41363 
685 2 0 0 6.4 6.02684 -134196 -149455 -126957 -12753 6.1759 29.1754 -7.41305 
723 2 1.795 8.671 6.4 6.022 -158058 -140865 -94494.7 29916.5 8551.44 -4620.93 -7.41491 
724 2 2.55 7.472 6.4 6.02288 -139986 -173616 -54434.5 35813.8 26871.7 11467.5 -7.41696 
725 2 1.889 6.217 6.4 6.02288 -145608 -96195.6 -92015.1 -2655.4 11457.4 -12814.5 -7.41461 
726 2 2.645 5.017 6.4 6.02264 -127033 -156588 -80707.4 -11246.7 24569.6 1526.41 -7.41584 
727 2 1.984 3.763 6.4 6.02372 -160971 -153596 -95224.8 -7023.32 32211 -24970 -7.41476 
728 2 2.739 2.563 6.4 6.02156 -134926 -172493 -105695 10000.8 22066.2 -23273 -7.41478 
729 2 2.078 1.309 6.4 6.02412 -141851 -142237 -110416 -17798.3 22905.4 -32314.8 -7.41388 
730 2 2.834 0.109 6.4 6.02416 -135856 -151882 -109607 -5657.2 -2186.89 -41733.2 -7.41401 
768 2 4.629 8.781 6.4 6.01928 -127004 -134743 -58442.9 36128.8 33006.9 9819.84 -7.41654 
769 2 3.967 7.526 6.4 6.02403 -134328 -85078.8 -73260 9145.9 2831.71 -22576.9 -7.41534 
770 2 4.723 6.326 6.4 6.02502 -123270 -154490 -82328.8 -8141.87 15842.4 7038.28 -7.41558 
771 2 4.062 5.072 6.4 6.02801 -149565 -140060 -66487.3 -19158.6 12561.2 -26524.2 -7.41587 
772 2 4.818 3.872 6.4 6.02183 -166455 -138314 -98436.6 9533.29 9619.44 -7063.18 -7.41502 
773 2 4.156 2.618 6.4 6.02333 -139427 -128595 -73892.1 -9167.04 24719.5 -32219 -7.41548 
774 2 4.912 1.418 6.4 6.02666 -128482 -155076 -97523.5 -1411.72 -115.17 -28353.9 -7.41479 
775 2 4.251 0.164 6.4 6.02212 -147220 -166483 -93531.1 -11549.6 9088.92 -31538.3 -7.41519 
813 2 6.046 8.835 6.4 6.02368 -157420 -157248 -48248.1 -3263.47 7710.2 -43546.4 -7.41742 
814 2 6.801 7.635 6.4 6.0217 -135395 -165392 -82004.5 8516.65 22096.1 -3392.9 -7.41556 
815 2 6.14 6.381 6.4 6.02665 -149075 -141843 -43349.9 -21265.1 4299.19 -37317.4 -7.41741 
816 2 6.896 5.181 6.4 6.02368 -116896 -133419 -98028.2 9012.6 10438.5 -2734.16 -7.41451 
817 2 6.234 3.927 6.4 6.02183 -188547 -127243 -43914.9 -14242.5 15515.6 -27909.8 -7.41767 
818 2 6.99 2.727 6.4 6.0265 -126511 -152260 -97661.7 -7090.99 -179.183 -7916.45 -7.41458 
819 2 6.329 1.473 6.4 6.02281 -141578 -148470 -62634.3 -30972.5 20230 -19518.2 -7.41619 
820 2 7.085 0.273 6.4 6.02167 -123179 -101807 -77291 22830.4 -14103.9 -16188.7 -7.41516 
858 2 8.879 8.944 6.4 6.02406 -140472 -167127 -76414.5 14981.5 21867.7 -10749.3 -7.41585 
859 2 8.218 7.69 6.4 6.02379 -151915 -145925 -13156.3 -18856.3 11168.2 -53910.8 -7.4196 
860 2 8.974 6.49 6.4 6.02414 -128427 -148418 -92248.5 -6712.31 17513.7 -14036.4 -7.41479 
861 2 8.313 5.236 6.4 6.02052 -160587 -162128 -20443.1 -11748.9 18957.4 -41882.1 -7.41922 
862 2 9.068 4.036 6.4 6.02288 -129492 -131017 -95889.6 21728.6 8474.96 -13304 -7.41421 
863 2 8.407 2.781 6.4 6.02173 -149721 -140639 -37693.7 2282.94 26459.7 -26496.3 -7.41809 
864 2 9.163 1.582 6.4 6.02173 -133307 -141892 -83423.2 25868 -9080.72 -14375.1 -7.41544 
865 2 8.502 0.327 6.4 6.02294 -140097 -133134 -65939.2 3413.59 21580.8 -14979.6 -7.41597 
903 2 10.296 8.999 6.4 6.02334 -147001 -138150 32552.1 -3063.43 10114.3 -48373 -7.42208 
905 2 10.391 6.544 6.4 6.022 -168516 -165897 18179.6 23943.3 26476.5 -47468.7 -7.42145 
907 2 10.485 4.09 6.4 6.02288 -146040 -117962 -6601.67 -10115.9 37472.7 -41991 -7.4194 
909 2 10.58 1.636 6.4 6.02372 -150650 -169659 -37844.2 -13861.6 34381.5 -32309.6 -7.41781 
273 1 10.958 8.181 3 6.02288 -146350 -162808 -91757.1 -18260.9 14078.2 -12716.6 -7.41508 
274 1 11.619 6.926 3 6.02288 -150232 -124027 44550.5 -2461.48 18292.9 -45134.7 -7.42238 
275 1 10.863 5.726 3 6.02264 -127716 -148795 -92607.1 31049.9 6544.56 -21297.2 -7.41508 
276 1 11.524 4.472 3 6.02372 -159858 -175527 13077.2 -2073.01 36943.5 -40666.6 -7.42093 
277 1 10.769 3.272 3 6.02156 -132048 -167845 -84676.2 9515.41 -904.538 -24152.2 -7.41561 
278 1 11.43 2.018 3 6.02412 -140118 -155672 -24890.7 5449.9 42477.1 -34647.7 -7.41857 
279 1 10.674 0.818 3 6.02416 -131475 -153172 -66871.5 23248.5 -16892.4 -25442.9 -7.41614 
318 1 13.791 8.072 3 6.02052 -162284 -178113 92207.9 872.868 6176.81 -21406.4 -7.42551 
319 1 13.036 6.872 3 6.02288 -136406 -136241 -102810 -933.49 450.778 -7049.65 -7.41384 
320 1 13.697 5.617 3 6.02173 -155099 -157330 62276 -16965.7 25638.2 -24969 -7.42376 
321 1 12.941 4.418 3 6.02061 -134441 -149767 -83265.7 -6405.92 -790.08 -17595.6 -7.41545 
322 1 13.602 3.163 3 6.02334 -145497 -146527 18128.2 -16817.3 43868.9 -28109.7 -7.42077 
323 1 12.847 1.963 3 6.02129 -136758 -173276 -61957 8656 -8952.39 -24262.8 -7.41677 
324 1 13.508 0.709 3 6.02665 -131523 -167578 -25142.8 9291.09 37099 -31753.6 -7.41845 
363 1 15.208 8.017 3 6.02368 -125119 -134449 -122276 4060.85 -4397.25 1878.16 -7.41316 
364 1 15.87 6.763 3 6.02183 -192598 -145863 94475.7 3629.07 17445.9 -1038.99 -7.42576 
365 1 15.114 5.563 3 6.02469 -124404 -125046 -96810.3 5752.11 -8332.5 -534.086 -7.41419 
366 1 15.775 4.308 3 6.0213 -150339 -163222 53969.7 -14558.3 38398.2 -497.816 -7.42272 
367 1 15.019 3.109 3 6.02041 -126412 -142836 -65412.9 -25730.3 -7594.75 -2960.05 -7.41623 
368 1 15.681 1.854 3 6.02385 -124895 -118795 6380.53 -11260.2 43607.7 -5518.42 -7.41946 
369 1 14.925 0.654 3 6.02442 -127320 -169279 -35766.8 20764 -22787.5 -7316.96 -7.41805 
407 1 17.381 9.162 3 6.02502 -131237 -149895 -122298 11328.9 607.172 -4642.11 -7.41335 
408 1 18.042 7.908 3 6.02801 -152727 -165578 92260.3 13978.8 15432.1 15981.4 -7.42499 
409 1 17.286 6.708 3 6.02217 -170539 -138906 -109291 -3429.81 -6237.2 4495.28 -7.41422 
410 1 17.948 5.454 3 6.02334 -142026 -148282 62368 4640.18 35666.6 23014.6 -7.42362 
411 1 17.192 4.254 3 6.02666 -128529 -162529 -80318.2 15612.4 -6074.91 15430.9 -7.41565 
412 1 17.853 3 3 6.02052 -153339 -179269 19154.3 6538.48 46329.3 25391.3 -7.42102 
413 1 17.098 1.8 3 6.02288 -132005 -145477 -51322.7 -15299.2 -14490.4 21017.8 -7.41703 
414 1 17.759 0.545 3 6.02255 -131048 -129378 -22439.3 3393.63 33405.8 19760.1 -7.41826 
452 1 20.215 9.053 3 6.02414 -150656 -123992 61945.5 1326.98 8841.68 34821.1 -7.42321 
453 1 19.459 7.853 3 6.0239 -129072 -150448 -102653 5569 5822.47 3890.87 -7.41489 
454 1 20.12 6.599 3 6.02523 -163317 -176138 44630.4 3187.79 29990.6 38428.6 -7.4228 
455 1 19.365 5.399 3 6.02406 -134873 -174115 -91939.9 -12303.4 4045.68 18522.7 -7.41508 
456 1 20.026 4.145 3 6.02379 -149463 -157162 12543.2 18872.3 43441.4 40796.6 -7.42091 
457 1 19.27 2.945 3 6.02414 -127091 -157460 -73322 6062.24 -2924.91 30067.6 -7.41592 
458 1 19.931 1.691 3 6.02156 -145436 -172294 -24269.3 6532.73 39118.3 36019.5 -7.41911 
459 1 19.176 0.491 3 6.02336 -134843 -146092 -48184.6 -15030.6 -25026 34415.1 -7.41677 
904 2 11.052 7.799 6.4 6.02484 -123698 -120252 -92528.5 10162.7 13146.6 -10202.2 -7.41448 
906 2 11.146 5.345 6.4 6.02288 -139055 -165777 -91890.3 42632.8 10732.3 -20201.7 -7.41501 
908 2 11.241 2.89 6.4 6.02264 -124935 -151255 -81209.4 -10216.2 207.985 -26934.1 -7.41576 
910 2 11.335 0.436 6.4 6.02123 -135766 -175011 -59195.1 6040.98 -23605 -30598.7 -7.41706 
948 2 13.13 9.108 6.4 6.02288 -129293 -118373 -109579 6887.12 3933.4 4540.79 -7.41333 
949 2 12.469 7.853 6.4 6.02218 -158237 -158772 69492.4 13430.5 19317 -29277.2 -7.42385 
950 2 13.225 6.654 6.4 6.01928 -126622 -135313 -102463 38557.3 551.896 -8495.77 -7.41428 
951 2 12.563 5.399 6.4 6.02403 -138974 -111835 41336.4 7797.61 38486.5 -35698.1 -7.42207 
952 2 13.319 4.199 6.4 6.02502 -125347 -159791 -81696.5 -9151.54 -838.662 -23216.7 -7.41565 
953 2 12.658 2.945 6.4 6.02801 -142351 -163098 2892.35 -18510.5 45626.9 -36841 -7.41995 
954 2 13.414 1.745 6.4 6.02218 -167277 -146340 -57668.1 2694.11 -13364.5 -31604.7 -7.41695 
955 2 12.752 0.491 6.4 6.02352 -124641 -147435 -34325.3 -6745.24 31010.9 -30724 -7.41802 
993 2 14.547 9.162 6.4 6.02288 -147977 -128493 105210 -3012.67 2850.85 -9533.42 -7.42559 
994 2 15.303 7.962 6.4 6.02264 -133863 -146568 -122183 -14427.2 -4844.78 205.483 -7.41345 
995 2 14.642 6.708 6.4 6.02368 -161432 -181453 87750.3 -3682.55 22946.4 -12610.8 -7.42512 
996 2 15.397 5.508 6.4 6.0217 -137835 -174136 -96297.8 451.543 -8468.98 -6737.16 -7.41499 
997 2 14.736 4.254 6.4 6.02666 -145484 -166612 48238.6 -15670.2 41860.8 -17554.6 -7.42257 
998 2 15.492 3.054 6.4 6.02368 -121008 -148536 -64558.5 -369.437 -8577.15 -12329 -7.41632 
999 2 14.83 1.8 6.4 6.02182 -176963 -147941 2646.28 -5912.42 43172.4 -14478.2 -7.42046 
1000 2 15.586 0.6 6.4 6.02468 -123290 -137677 -33909.7 -3528.5 -24681.8 -11905.3 -7.41748 
1039 2 16.72 8.017 6.4 6.02523 -162913 -180581 105045 745.752 6822.2 7171.75 -7.4258 
1040 2 17.475 6.817 6.4 6.02406 -138480 -170710 -109305 -4315.27 -5942.65 1119.63 -7.4142 
1041 2 16.814 5.563 6.4 6.02379 -151469 -163650 74492 -12176.2 26517.3 8747.98 -7.42408 
1042 2 17.57 4.363 6.4 6.02414 -130272 -158234 -81225.5 -19090.2 -5396.47 7578.17 -7.41555 
1043 2 16.909 3.109 6.4 6.02156 -149499 -180783 28421.9 941.514 43989.4 12155 -7.42189 
1044 2 17.664 1.909 6.4 6.02316 -132370 -145638 -53906.1 7370.09 -11616.2 12948.1 -7.41661 
1045 2 17.003 0.654 6.4 6.02131 -136821 -163143 -16592.2 17037.5 36531.4 18415.3 -7.41909 
1084 2 19.554 8.126 6.4 6.02217 -173666 -135906 -102303 -13257.2 7029.77 4826.06 -7.41453 
1085 2 18.892 6.872 6.4 6.02334 -144288 -146938 69353.7 -314.173 15639 31391.8 -7.42414 
1086 2 19.648 5.672 6.4 6.02665 -128964 -156299 -92776.4 -30941.3 2368.83 16465.6 -7.41481 
1087 2 18.987 4.418 6.4 6.02052 -158872 -176946 32329.6 386.659 36854.9 32946.2 -7.42197 
1088 2 19.742 3.218 6.4 6.02288 -130327 -138819 -76561.5 4543.95 -1588.72 24183.1 -7.41539 
1089 2 19.081 1.963 6.4 6.02152 -144554 -155016 -10934.4 20727.2 44064.5 34042.3 -7.41927 
1090 2 19.837 0.764 6.4 6.02081 -133398 -153271 -55553.7 5827.26 -18140.4 29130.8 -7.41709 
1129 2 20.97 8.181 6.4 6.02183 -194487 -139515 41453.9 -1241.98 11474.2 51249.1 -7.42311 
1131 2 21.065 5.726 6.4 6.0213 -155151 -154184 18054.2 21419 27966 46661.9 -7.42126 
1133 2 21.159 3.272 6.4 6.02156 -133175 -106679 -13218.5 20398.3 41063.6 36632.8 -7.41872 
1135 2 21.254 0.818 6.4 6.0261 -135812 -159156 -48179.3 -8193.35 33882.9 28492.4 -7.41701 
497 1 21.632 8.999 3 6.02288 -149120 -163019 -83189.8 -42560.4 15695.4 8023.04 -7.4153 
498 1 22.293 7.744 3 6.02288 -148349 -118193 12682.6 6579.74 16758.1 52346.6 -7.4207 
499 1 21.537 6.544 3 6.02264 -129180 -149064 -92291.3 4722.94 15191.4 16335.9 -7.41489 
500 1 22.198 5.29 3 6.02368 -161123 -169234 -3441.08 11317.9 28890.5 45606 -7.42029 
501 1 21.443 4.09 3 6.0217 -132575 -168230 -90427.8 -8531.06 8605.71 21317.4 -7.41514 
502 1 22.104 2.836 3 6.02665 -143770 -151936 -27961.1 24433.1 34393.9 34129.2 -7.41845 
503 1 21.348 1.636 3 6.02369 -119513 -137241 -76306.7 -7334.63 -9981.03 24369.8 -7.41551 
504 1 22.01 0.382 3 6.02202 -175905 -133942 -58213.3 12144.8 24961.4 23656.1 -7.41718 
542 1 24.466 8.89 3 6.02183 -192752 -127142 -24731.1 5982.61 8798.09 54149.4 -7.41888 
543 1 23.71 7.69 3 6.02288 -123289 -117209 -84435 -9553.78 21362.6 11256.7 -7.41451 
544 1 24.371 6.435 3 6.02219 -155439 -141989 -25786.7 -6849.22 10134.7 45816.2 -7.41846 
545 1 23.615 5.236 3 6.02041 -121531 -127565 -97300.1 -39242.5 12826.7 9936.74 -7.41453 
546 1 24.277 3.981 3 6.02156 -138093 -96932.1 -32719 188.477 19687 31170.2 -7.41739 
547 1 23.521 2.781 3 6.02281 -124710 -149072 -94530.6 8215.28 318.702 9703.64 -7.41472 
548 1 24.182 1.527 3 6.0265 -142169 -150062 -54522.8 31066.7 23389.1 17534.5 -7.41656 
549 1 23.426 0.327 3 6.022 -171162 -136015 -73256.5 -6536.55 -18066.9 13726.1 -7.41628 
587 1 25.882 8.835 3 6.02217 -171088 -135073 -66822.1 -7751.67 30511.6 -1834.08 -7.41632 
588 1 26.544 7.581 3 6.02334 -139691 -122287 -55718.9 6350.87 2694.68 35075.7 -7.41684 
589 1 25.788 6.381 3 6.02665 -124754 -151493 -89554.1 9935.37 15029.2 -1225.42 -7.41504 
590 1 26.449 5.127 3 6.02052 -161636 -154921 -49478.8 12085.7 8758.49 30097.6 -7.41706 
591 1 25.694 3.927 3 6.02288 -128018 -133239 -100455 -24491.1 5611.53 4181.19 -7.41443 
592 1 26.355 2.672 3 6.02173 -153258 -138115 -57357.4 -5304.39 20462.7 25937.3 -7.41649 
593 1 25.599 1.473 3 6.0206 -132868 -144776 -91969.7 -26978.7 -5495.41 16435.5 -7.41537 
594 1 26.26 0.218 3 6.02295 -142812 -134200 -80813 -668.391 13576.5 20479.6 -7.41516 
632 1 28.716 8.726 3 6.02523 -154009 -148860 -83370.7 -556.458 7896.85 15040.9 -7.41532 
633 1 27.961 7.526 3 6.02406 -134047 -174237 -65834.4 -8718.49 23865.8 -11239.4 -7.41641 
634 1 28.622 6.272 3 6.02379 -149900 -132692 -77740.1 16212.3 6950.38 20297.3 -7.41564 
635 1 27.866 5.072 3 6.02414 -126791 -154748 -88253.8 3608.02 15188.5 -1841.97 -7.41524 
636 1 28.527 3.818 3 6.02156 -156881 -153553 -77227.8 5276.36 24899.3 29814.6 -7.4161 
637 1 27.772 2.618 3 6.02334 -132874 -137306 -102264 -23837.2 10540.4 21811.7 -7.41429 
638 1 28.433 1.363 3 6.0204 -145111 -139540 -92724.9 -6120.78 21177.7 36129.9 -7.41508 
639 1 27.677 0.164 3 6.02194 -141270 -148247 -95031.5 -26367.7 -5520.22 40330.1 -7.41478 
669 1 30.133 8.671 3 6.02264 -130834 -161278 -37789.1 14665.8 36152.4 -9679.3 -7.41788 
670 1 30.794 7.417 3 6.02368 -154471 -147385 -97673.5 2656.89 6779.52 4094.47 -7.41499 
671 1 30.039 6.217 3 6.0217 -135233 -178650 -62535.1 -2869.55 27015.1 -7699.96 -7.41653 
672 1 30.7 4.963 3 6.02666 -149206 -134223 -97745.1 14585 24457.5 14333.7 -7.4148 
673 1 29.944 3.763 3 6.02368 -121713 -142974 -93568.5 -5958.22 31863.1 8035.57 -7.41468 
674 1 30.606 2.509 3 6.02183 -184785 -122393 -109498 5257.31 35059.8 22756.2 -7.41443 
675 1 29.85 1.309 3 6.0263 -131637 -155149 -115561 10895.5 16102.6 30437 -7.41352 
676 1 30.511 0.055 3 6.02321 -135878 -149807 -121785 21327 1642.83 24632.8 -7.41324 
1130 2 21.726 6.981 6.4 6.02469 -123896 -118134 -91857.9 -14851.1 12148.9 19497.2 -7.41429 
1132 2 21.821 4.527 6.4 6.02041 -124184 -129251 -92195.8 18138.4 3385.54 22190.9 -7.41459 
1134 2 21.915 2.072 6.4 6.02241 -126825 -150214 -81910.7 -28024.3 -8101.07 20832.2 -7.41523 
1174 2 23.804 8.29 6.4 6.02288 -137541 -129794 -80976.6 -208.498 23283.3 13646.4 -7.41498 
1175 2 23.143 7.035 6.4 6.02173 -156444 -144249 -6480.04 21729.3 17703.3 53541.9 -7.42006 
1176 2 23.899 5.836 6.4 6.02061 -132170 -138983 -96121.8 5099.38 7283.42 13965.6 -7.41478 
1177 2 23.238 4.581 6.4 6.02334 -151768 -132306 -20200.6 25503.8 26798.5 37305.5 -7.4188 
1178 2 23.993 3.381 6.4 6.0217 -135554 -160337 -97815.8 -12621.6 -2818.58 10374.4 -7.41501 
1179 2 23.332 2.127 6.4 6.02665 -139937 -151050 -43455.5 -1389.13 30178.8 22366 -7.4174 
1180 2 24.088 0.927 6.4 6.0235 -125408 -135291 -82144 -14441.3 -14072.5 10200.1 -7.41529 
1219 2 25.221 8.344 6.4 6.02288 -146279 -106917 -37742.6 2203.83 10813.4 46048.2 -7.41738 
1220 2 25.977 7.144 6.4 6.02264 -127156 -146167 -83426.1 -28194.4 16949.5 -605.988 -7.41567 
1221 2 25.316 5.89 6.4 6.02372 -161036 -160669 -37887.1 5527.19 9732.22 36169.1 -7.41775 
1222 2 26.071 4.69 6.4 6.02156 -131890 -166044 -97838.4 -10681 6971.82 3790.86 -7.41522 
1223 2 25.41 3.436 6.4 6.02414 -147794 -145016 -43962.9 -96.5137 16264.1 27473.3 -7.41724 
1224 2 26.166 2.236 6.4 6.02415 -130620 -149123 -98711.5 -26041 1223.31 11896.1 -7.41482 
1225 2 25.505 0.982 6.4 6.02177 -146032 -167011 -66558.7 14877.3 16655.8 24073.9 -7.41666 
1264 2 28.055 8.453 6.4 6.02502 -125974 -159645 -55805.1 -23181.2 31708.1 -15176 -7.41679 
1265 2 27.394 7.199 6.4 6.02801 -146313 -138902 -65746.5 -7623.72 2208.42 26257.6 -7.416 
1266 2 28.15 5.999 6.4 6.02217 -167566 -140113 -77526.6 -10731.2 20985.7 -4055.29 -7.41583 
1267 2 27.488 4.745 6.4 6.02334 -140536 -124710 -62544 6128.76 6888.94 27267.6 -7.41638 
1268 2 28.244 3.545 6.4 6.02665 -128963 -156296 -97786.2 -30939.6 24561.3 14063 -7.4148 
1269 2 27.583 2.291 6.4 6.02052 -154662 -161099 -74001.8 6407.62 15559 37483.6 -7.41573 
1270 2 28.338 1.091 6.4 6.02328 -138348 -135109 -105894 592.313 9265.64 30638.9 -7.41422 
1309 2 29.472 8.508 6.4 6.02484 -142165 -132308 -89540.1 -12142.5 6453.53 13601 -7.41504 
1310 2 30.228 7.308 6.4 6.02368 -120626 -148243 -49660.9 -5490.73 30480.6 -7423.41 -7.41679 
1311 2 29.566 6.054 6.4 6.02183 -188968 -114589 -88270.9 462.653 5967.77 14061.4 -7.41578 
1312 2 30.322 4.854 6.4 6.02469 -123435 -127445 -77110.5 -7914.2 38244.9 6738.67 -7.41501 
1313 2 29.661 3.599 6.4 6.0213 -152177 -135206 -93567.5 19536.9 22886.8 23723.2 -7.41475 
1314 2 30.417 2.4 6.4 6.02041 -128948 -133753 -109434 22738.4 37225.1 19043.5 -7.41381 
1315 2 29.755 1.145 6.4 6.02384 -128190 -98978.1 -110353 19020.4 16652.8 35945.1 -7.41328 
1350 2 31.645 7.363 6.4 6.02052 -154191 -144609 -100204 -452.262 6417.18 2736.78 -7.415 
1351 2 31.739 4.908 6.4 6.02173 -155012 -126164 -102225 16161.3 24137.3 -1815.12 -7.41484 
1352 2 31.834 2.454 6.4 6.02334 -148068 -120366 -115755 14810.6 34129.8 -1244.81 -7.4136 
39 1 1.417 18.379 3 6.02519 -135707 -145696 -122253 24163 -2259.57 -4259.7 -7.41355 
40 1 0.661 17.179 3 6.02379 -152512 -162048 105219 14762.8 9650.85 2294.99 -7.42608 
41 1 1.322 15.925 3 6.02406 -153434 -155713 -109385 -383.872 -1971.66 -5682.94 -7.4142 
42 1 0.567 14.725 3 6.02523 -160123 -181824 69666.8 153.423 34915.2 -2119.86 -7.42405 
43 1 1.228 13.471 3 6.02396 -147525 -133850 -92610.7 16297.4 15396.7 -6202.75 -7.41504 
44 1 0.472 12.271 3 6.02414 -136479 -151917 18008.4 7044.4 54375.2 744.268 -7.42121 
45 1 1.134 11.017 3 6.02183 -187241 -111948 -92205.4 5413.6 20931.6 -8195.48 -7.41508 
46 1 0.378 9.817 3 6.02288 -126752 -135404 -20305.2 3317.47 45758.4 4497.02 -7.41825 
85 1 2.834 18.325 3 6.0213 -158263 -158828 87855.5 -15745.2 510.998 26122.3 -7.42481 
86 1 3.495 17.07 3 6.0262 -135064 -114546 -96342.7 11125.1 -10146.4 -3947.19 -7.41424 
87 1 2.739 15.87 3 6.02334 -145261 -145082 74464 4011.16 20819.5 18684.2 -7.42425 
88 1 3.401 14.616 3 6.02368 -142146 -124609 -81192.9 5269.54 3854.35 -8502.67 -7.41537 
89 1 2.645 13.416 3 6.0262 -145991 -165856 32271.4 17952.3 46896.4 15483.5 -7.42167 
90 1 3.306 12.162 3 6.02639 -147969 -136537 -76620.1 16606.6 20190.4 -13552 -7.41541 
91 1 2.55 10.962 3 6.02217 -177870 -147076 -13453.1 5964.61 52274.7 17199.9 -7.41952 
92 1 3.212 9.708 3 6.02334 -136942 -114242 -82038.6 2873.22 13992 -17374.1 -7.41553 
130 1 5.668 18.215 3 6.01928 -135342 -128358 -81658.6 -15119.1 -20531 10878 -7.41544 
131 1 4.912 17.016 3 6.02149 -158585 -153612 48318.4 -12719.1 5784.98 44952.4 -7.42257 
132 1 5.573 15.761 3 6.02288 -152145 -127581 -64599 -834.37 -15042.9 -1256.32 -7.41602 
133 1 4.818 14.561 3 6.02052 -160656 -171673 28485.3 7975.13 32349.5 32108.2 -7.42166 
134 1 5.479 13.307 3 6.02414 -153228 -139277 -53814.7 26502.2 5303.43 -16455.5 -7.41697 
135 1 4.723 12.107 3 6.02379 -141201 -154417 -10873.8 24122.3 51489.1 21113 -7.41974 
136 1 5.384 10.853 3 6.02523 -158149 -154488 -55510.7 3300.07 16178 -30316.4 -7.41674 
137 1 4.629 9.653 3 6.02406 -141242 -171580 -48342.6 5641.68 41603.7 15122.9 -7.4174 
175 1 7.085 18.161 3 6.02368 -162080 -168241 2910.58 3100.79 -9116.96 57929.6 -7.42038 
176 1 7.746 16.907 3 6.02264 -143928 -143536 -57625.6 29606.1 -34039.1 4184.66 -7.41689 
177 1 6.99 15.707 3 6.02288 -150013 -114292 2534.72 8531.8 9005.15 44630.7 -7.41947 
178 1 7.651 14.452 3 6.02138 -162336 -156913 -33820.9 -19510.5 -22624.4 -15436.8 -7.41832 
179 1 6.896 13.253 3 6.02288 -164452 -159869 -16851.3 -18626.2 34291.2 22401.2 -7.41895 
180 1 7.557 11.998 3 6.02288 -146426 -109949 -22266.2 10855.3 301.781 -38729.3 -7.41834 
181 1 6.801 10.798 3 6.02264 -143011 -144996 -48190.7 28300.6 42365 4462.56 -7.41735 
182 1 7.462 9.544 3 6.02368 -159987 -162554 -24253.6 3216.38 11620.5 -51866.9 -7.41878 
220 1 9.918 18.052 3 6.02406 -142490 -166851 -59145.7 7780.69 -38338.3 -5184.31 -7.41681 
221 1 9.163 16.852 3 6.02523 -160255 -159061 -34443.6 3928.34 -11183.1 42242.9 -7.4179 
222 1 9.824 15.598 3 6.02396 -142069 -151534 -25145 26190.5 -46050.7 -16216.1 -7.41869 
223 1 9.068 14.398 3 6.02414 -145706 -128560 -35888.6 15998.7 5044.53 23462.4 -7.41774 
224 1 9.73 13.144 3 6.02183 -193896 -133800 6157.88 14088.1 -26529.2 -34964.2 -7.42038 
225 1 8.974 11.944 3 6.02288 -141444 -114019 -50935.2 14280.9 25571.8 2069.09 -7.4165 
226 1 9.635 10.689 3 6.02218 -157963 -150688 19243.5 -11386.6 -1100.98 -52862 -7.42073 
227 1 8.879 9.49 3 6.01928 -134538 -127448 -73387.2 -16101.4 27508 -12543.8 -7.41584 
678 2 0.094 15.979 6.4 6.02052 -161009 -179428 92260.7 -1709.8 21486 5327.35 -7.42552 
679 2 0.189 13.525 6.4 6.02379 -143820 -165003 44396 -16293.1 48264.1 6700.91 -7.42328 
680 2 0.283 11.071 6.4 6.02406 -144247 -184419 -2997.07 1964.91 53951.3 2104.87 -7.42029 
716 2 2.173 17.288 6.4 6.02334 -145796 -145781 94474.2 -1083.16 7986.38 15568.8 -7.4254 
717 2 1.511 16.034 6.4 6.02368 -137504 -125131 -109300 3963.51 642.626 -7636.75 -7.41385 
718 2 2.267 14.834 6.4 6.0262 -149242 -166762 62320.7 -12075.7 37767.6 19449.8 -7.42333 
719 2 1.606 13.58 6.4 6.02639 -149528 -136414 -91808.8 -9803.27 18038.5 -5777.61 -7.41467 
720 2 2.362 12.38 6.4 6.02217 -183468 -148192 12302.2 1389.2 57027.6 17149.3 -7.42108 
721 2 1.7 11.126 6.4 6.02334 -138342 -112865 -90509 -406.7 22723.2 -3278.7 -7.4151 
722 2 2.456 9.926 6.4 6.02484 -125962 -130204 -28169.9 688.971 46712.3 12758.5 -7.41813 
761 2 3.59 17.343 6.4 6.02406 -146629 -165424 -96408.1 11590 -4610.64 -6893.52 -7.41494 
762 2 4.345 16.143 6.4 6.02523 -163122 -176353 53993.3 4388.48 18646.3 33518.9 -7.4228 
763 2 3.684 14.889 6.4 6.02396 -144734 -142439 -80248.7 -7904.11 10248.2 -12998 -7.41589 
764 2 4.44 13.689 6.4 6.02414 -143061 -143663 19055.5 771.232 45244.5 27378.9 -7.42078 
765 2 3.778 12.435 6.4 6.02183 -190417 -118288 -73350.2 859.477 24558.9 -17603.1 -7.41622 
766 2 4.534 11.235 6.4 6.02288 -134129 -125060 -24256.8 5542.83 50714.5 15929.5 -7.4179 
767 2 3.873 9.98 6.4 6.02219 -149013 -131302 -76296.8 17419.1 16100.5 -20729.7 -7.41548 
806 2 6.423 17.452 6.4 6.02406 -161017 -170591 18245.8 5494.35 -2536.88 52063.1 -7.4211 
807 2 5.762 16.198 6.4 6.02379 -144023 -143783 -65539.2 -2575.76 -6336.3 -5091.82 -7.41678 
808 2 6.518 14.998 6.4 6.02403 -148359 -116851 6192.13 7563.36 17019.1 40489.7 -7.41964 
809 2 5.857 13.743 6.4 6.02138 -161617 -154550 -51223.8 42377.4 11013.2 -23094.4 -7.41745 
810 2 6.612 12.544 6.4 6.02288 -160479 -162122 -22298.1 41031.2 33629.1 19123.2 -7.41865 
811 2 5.951 11.289 6.4 6.02288 -143186 -105619 -48173 3904.16 17286 -38888.8 -7.417 
812 2 6.707 10.089 6.4 6.02264 -138156 -146693 -55595.2 -5767.31 34287.3 1167.41 -7.41687 
851 2 7.84 17.507 6.4 6.02219 -131327 -131993 -62173.2 7953.88 -25583.5 4372.85 -7.41638 
852 2 8.596 16.307 6.4 6.02242 -146329 -109821 -25210.8 5005.26 -8913.29 47995.6 -7.41813 
853 2 7.935 15.052 6.4 6.02288 -153284 -128260 -35755.2 25027.9 -17741.5 -16083.1 -7.41756 
854 2 8.69 13.852 6.4 6.02052 -157803 -161283 -33661.5 10507.6 2061.22 27356.7 -7.41833 
855 2 8.029 12.598 6.4 6.02414 -153263 -146805 -16963.8 -7660.62 -2275.19 -40830.8 -7.41888 
856 2 8.785 11.398 6.4 6.02379 -139437 -147418 -53765.5 -2855.22 16918.7 3557.06 -7.41742 
857 2 8.124 10.144 6.4 6.02523 -161550 -164736 -11009.3 4139.42 7503.8 -55251.5 -7.41925 
897 2 10.013 16.361 6.4 6.0262 -134651 -121253 -34472.7 7460.85 -42096.4 -11493.1 -7.41727 
899 2 10.107 13.907 6.4 6.02368 -141587 -139403 2289.04 9735.48 -34159.4 -30075.4 -7.41972 
901 2 10.202 11.453 6.4 6.02639 -152294 -157984 28490 -7601.12 -11518.6 -44112 -7.42113 
265 1 11.335 17.997 3 6.02334 -138244 -118054 -66945.6 2201.56 -13624.7 27298.8 -7.41631 
266 1 11.997 16.743 3 6.02368 -130803 -143171 -24807.5 6590 -51221.8 -19442.4 -7.4184 
267 1 11.241 15.543 3 6.0262 -147849 -140128 -61956.9 19905.9 -16545.5 19916.1 -7.41623 
268 1 11.902 14.289 3 6.02639 -147553 -161005 18251.4 19286.4 -46214 -23873.4 -7.42068 
269 1 11.146 13.089 3 6.02217 -190157 -125753 -65568.1 10149.5 1260.79 8066.75 -7.4166 
270 1 11.808 11.835 3 6.02334 -146279 -141537 53992.9 6612.53 -19695.2 -32975.5 -7.42301 
271 1 11.052 10.635 3 6.02484 -135615 -114132 -80359.1 13582.7 16323.6 -2404.59 -7.41532 
272 1 11.713 9.38 3 6.022 -169322 -170878 62295.1 -29427.3 2137.85 -42433.1 -7.42362 
310 1 14.169 17.888 3 6.02288 -137635 -147339 -25587.9 -8258.61 -44825 -14115.3 -7.4181 
311 1 13.414 16.688 3 6.02052 -154515 -146470 -84677.7 2876.94 -20480.8 12883.2 -7.41548 
312 1 14.075 15.434 3 6.02414 -144939 -163643 12667.4 20967.6 -53734.6 -11583.7 -7.42095 
313 1 13.319 14.234 3 6.02379 -147468 -133892 -83200.6 19242.5 -14753.1 9478.75 -7.41579 
314 1 13.98 12.98 3 6.02523 -160499 -180470 62280.5 1567.8 -34413.6 -9770.3 -7.42352 
315 1 13.225 11.78 3 6.02406 -153742 -158284 -96551.1 2771.7 3661.6 7474.58 -7.41493 
316 1 13.886 10.526 3 6.02379 -152972 -161348 94458.9 15287.9 -9651.53 -14746.7 -7.42545 
317 1 13.13 9.326 3 6.02414 -138935 -147186 -109287 26572.7 6960.76 3146.45 -7.41405 
355 1 15.586 17.834 3 6.02288 -139774 -93446 -97271.6 558.326 -15074 6274.5 -7.41416 
356 1 16.247 16.579 3 6.02288 -149870 -178947 -3009.13 -31209.6 -53948.8 2261.71 -7.42028 
357 1 15.492 15.38 3 6.022 -163616 -141595 -92425.3 -30063.4 -21788.1 4963.62 -7.41485 
358 1 16.153 14.125 3 6.02519 -140606 -130737 44637.7 2961.49 -48268.8 6762.14 -7.42272 
359 1 15.397 12.925 3 6.02379 -150514 -130719 -102667 14813.1 -6212.07 3062.91 -7.41468 
360 1 16.058 11.671 3 6.02406 -159835 -181572 92287 -2361.33 -21527.8 5277.44 -7.4254 
361 1 15.303 10.471 3 6.02421 -150004 -158210 -122267 850.876 3797.59 2681.43 -7.41329 
362 1 15.964 9.217 3 6.02484 -151746 -164983 111149 13935.5 24.7501 -94.4462 -7.42615 
400 1 18.42 17.725 3 6.02396 -130612 -162063 -28004.9 12976.7 -46718 12728.7 -7.41881 
401 1 17.664 16.525 3 6.02403 -133691 -81122.3 -90512.8 -13214.8 -22721.2 -3240.05 -7.41442 
402 1 18.326 15.27 3 6.01796 -188531 -142340 12328.6 -30400.3 -57018.1 17138.2 -7.42119 
403 1 17.57 14.071 3 6.02219 -155154 -130787 -91893.2 -19369.5 -18083.2 -5767.31 -7.41467 
404 1 18.231 12.816 3 6.02351 -145077 -132509 62498.3 628.661 -37763.6 19465 -7.42288 
405 1 17.475 11.616 3 6.02334 -138681 -123006 -109234 39.9818 -706.036 -7736.43 -7.41397 
406 1 18.137 10.362 3 6.02414 -147524 -148881 94320.6 4094.03 -7994.48 15604.8 -7.42505 
445 1 19.837 17.67 3 6.02801 -143378 -136927 -76208.2 11802.2 -16110.2 -20728.4 -7.41548 
446 1 20.498 16.416 3 6.02389 -136612 -159009 -24097 7618.69 -50720.8 15881 -7.4186 
447 1 19.742 15.216 3 6.02414 -190690 -120755 -73436.6 221.265 -24606 -17574.2 -7.41612 
448 1 20.404 13.962 3 6.02219 -142789 -141206 19253.5 -1852.12 -45288 27320.4 -7.42088 