ITEM: TIMESTEP
68
ITEM: NUMBER OF ATOMS
1352
ITEM: BOX BOUNDS pp pp pp
0.0000000000000000e+00 3.1928000000000001e+01
0.0000000000000000e+00 5.5300918199999998e+01
0.0000000000000000e+00 1.5000000000000000e+01
ITEM: ATOMS id type x y z c_csym c_2[1] c_2[2] c_2[3] c_2[4] c_2[5] c_2[6] c_3 
47 1 1.0499 8.56113 2.93735 6.02132 -159570 -125598 -22414.8 -12765.2 6284.29 -6991.76 -7.41556 
48 1 0.2938 7.36174 2.93037 6.01993 -132872 -153579 21535.5 -12154.8 21130.7 -1654.18 -7.41822 
49 1 0.953847 6.10674 2.92365 6.02474 -163519 -130883 -9946.05 -16606.2 4229.42 -4520.88 -7.41573 
50 1 0.197399 4.90761 2.91708 6.01998 -136649 -153128 12845.5 -15264.6 24554.7 -4730.36 -7.41706 
51 1 0.856999 3.65237 2.9107 6.01774 -163389 -133518 -2712.9 -13622.1 15599.5 -4915.21 -7.41581 
52 1 0.099656 2.45377 2.90439 6.02211 -141637 -152375 -1542.92 -7293.77 23161.5 -2486.56 -7.41583 
53 1 0.758309 1.19809 2.90056 6.02261 -153218 -141144 -6578.28 -3078.06 11345.9 -7906.47 -7.41546 
54 1 5.59607e-07 3.1506e-06 2.89845 6.03034 -146951 -146961 -8859.01 27.1807 -0.0944846 0.0338104 -7.41532 
93 1 2.46675 8.50497 2.93857 6.0138 -153845 -132516 15606.1 -13052.8 24243.5 9453.07 -7.41822 
94 1 3.1263 7.24954 2.93231 6.02104 -173812 -112340 -6813.38 -19370 401.162 -13494.8 -7.41631 
95 1 2.37063 6.04992 2.9253 6.01852 -152707 -135066 9962.87 -11386.8 17731.2 1737.14 -7.41721 
96 1 3.02996 4.79439 2.92085 6.02104 -173599 -118035 5166.43 -16423.3 3508 -15394.9 -7.41661 
97 1 2.27371 3.59509 2.91339 6.01684 -155353 -139078 1165.99 -3136.27 21918.5 -7873.6 -7.4162 
98 1 2.93246 2.33936 2.91077 6.01969 -164870 -127874 5805.31 -4093.43 10792.9 -22620.8 -7.4164 
99 1 2.17501 1.14069 2.90436 6.0175 -150861 -145099 -4795.87 9814.92 10005.4 -15524 -7.4156 
138 1 5.29793 8.39309 2.94347 6.01244 -185163 -96978.5 -127.951 -27832.9 5363.27 -26533.5 -7.41735 
139 1 4.54304 7.19301 2.9352 6.01632 -163011 -121827 -4326.69 -12615.8 13576.1 4807.01 -7.41676 
140 1 5.20244 5.93744 2.93223 6.01859 -172843 -113046 12242.7 -20454.2 396.65 -21742.1 -7.41765 
141 1 4.44665 4.73786 2.92501 6.02116 -160282 -131589 -7666.35 -1339.96 8830.2 -1412.46 -7.41603 
142 1 5.10582 3.48228 2.92385 6.02008 -164940 -122280 18080.3 -6146.29 5530.3 -20682.7 -7.41766 
143 1 4.34913 2.28311 2.9169 6.02051 -157358 -139863 -6258.54 16912.3 5963.49 -9696.49 -7.41575 
144 1 5.00797 1.02754 2.91809 6.01825 -153021 -137600 9253.5 9148.06 8080.37 -21816.9 -7.41689 
183 1 6.71464 8.33664 2.94857 6.00688 -176591 -107093 -19127.1 -16432.4 19188.8 -5068.34 -7.41644 
184 1 7.37439 7.08116 2.94669 6.01468 -179698 -109691 19889.9 -23653 6965.35 -36888.1 -7.41897 
185 1 6.61918 5.88125 2.93776 6.01971 -157522 -127540 -21846.3 -2813.37 4869.83 -6075.97 -7.41574 
186 1 7.27897 4.62597 2.93756 6.01817 -162828 -125725 23750.8 -9695.39 9901.05 -24481.1 -7.41875 
187 1 6.52254 3.42668 2.93 6.02468 -151675 -138699 -17522.1 14883.6 -1262.93 -4823.53 -7.41555 
188 1 7.18204 2.1714 2.93095 6.01824 -151700 -134299 17147 8679.61 13521.1 -15104 -7.41795 
189 1 6.42469 0.97249 2.92514 6.02317 -148479 -142993 -4056.13 31823.3 -8689.69 -6414.49 -7.41616 
228 1 9.545 8.22651 2.9657 6.0077 -192902 -101328 40277.9 -20307 6542.38 -48716.1 -7.42117 
229 1 8.79113 7.02574 2.9549 6.00964 -164888 -118732 -35906.9 1524.71 10505 -15999 -7.41565 
230 1 9.45145 5.77067 2.95536 6.01294 -173413 -123546 34663.7 -4875.56 16080 -38598.3 -7.42037 
231 1 8.69574 4.57092 2.94541 6.01603 -146741 -135794 -29918.8 17035.1 1130.52 -14082.3 -7.41551 
232 1 9.35587 3.31594 2.94637 6.01149 -155326 -135141 23710.8 12665.9 24194.7 -24566.2 -7.41913 
233 1 8.5988 2.11685 2.93828 6.01981 -141764 -141554 -17156.5 33718.3 -7120.03 -10165.8 -7.41591 
234 1 9.25841 0.861719 2.94025 6.01227 -145043 -139745 4737.97 27264.6 19747.6 -14648 -7.41758 
681 2 0.366723 8.61676 6.46244 6.01818 -126608 -161902 23750.7 11134.4 26152.2 3665.4 -7.41875 
682 2 0.462831 6.16291 6.47615 6.02009 -127646 -159631 18080 15398.7 20677.1 5552.04 -7.41766 
683 2 0.55971 3.70927 6.48923 6.01969 -133496 -159192 5805.71 13928.2 24986.3 1963.6 -7.41639 
684 2 0.658422 1.25576 6.49944 6.02261 -141601 -152922 -6578.53 3611.86 12521.2 -5872.01 -7.41546 
685 2 6.06025e-07 3.2909e-06 6.50155 6.03032 -146986 -147034 -8859.49 -21.9976 0.0967046 -0.00473289 -7.41532 
723 2 1.78372 8.67301 6.46224 6.01974 -132693 -152450 -21846.8 11612.1 7696.71 -1179.23 -7.41574 
724 2 2.54075 7.47416 6.46777 6.01857 -110271 -175679 12242.9 15648.6 19027.6 10528 -7.41765 
725 2 1.87978 6.21984 6.47499 6.02115 -137668 -154288 -7666.45 11773.1 5638.55 -6940.96 -7.41603 
726 2 2.63708 5.02122 6.47914 6.02106 -117695 -173920 5166.67 15847.4 15086.5 4659.88 -7.41661 
727 2 1.97658 3.76664 6.48661 6.01687 -140382 -153969 1165.63 5516.83 17777.5 -15045.4 -7.4162 
728 2 2.73454 2.56837 6.4893 6.01776 -129200 -167658 -2712.88 6155.38 12057 -11052.4 -7.41581 
729 2 2.0752 1.31319 6.49561 6.02211 -143432 -150548 -1542.96 -8313.09 13734.9 -18815.1 -7.41582 
730 2 2.8335 0.115022 6.49389 6.01735 -146394 -148630 -2279.6 -2840.75 -2088.52 -23889.8 -7.41581 
768 2 4.61967 8.78469 6.45653 6.01244 -94910.7 -187250 -127.922 24240.1 25659.9 8621.96 -7.41735 
769 2 3.95781 7.5309 6.4648 6.0163 -121178 -163668 -4326.29 11548 2625.15 -14160.4 -7.41676 
770 2 4.71514 6.33222 6.46769 6.02104 -110938 -175147 -6813.78 16989.3 11887.3 6399.7 -7.41631 
771 2 4.05407 5.07798 6.4747 6.0185 -129605 -158036 9963.22 1977.24 7360.63 -16225.2 -7.41721 
772 2 4.81166 3.87942 6.47635 6.02474 -124577 -169689 -9945.8 5837.2 6029.65 -1402.01 -7.41573 
773 2 4.15142 2.62476 6.48292 6.01999 -135808 -154017 12845.3 -14794.8 16374 -18899.9 -7.41706 
774 2 4.90946 1.42635 6.48208 6.0195 -138033 -157725 -4626.28 -8317.7 -942.605 -14737.5 -7.41594 
775 2 4.25024 0.171115 6.48662 6.01938 -146358 -147917 3322.58 -26006.4 7937.44 -17001.2 -7.41625 
813 2 6.03684 8.84139 6.45081 6.00472 -104990 -180124 3662.45 19095.2 6497.16 -33062.3 -7.41789 
814 2 6.79396 7.64259 6.45298 6.01371 -101115 -179352 -19698.6 23368.1 18058.4 -2167.68 -7.41613 
815 2 6.13214 6.38875 6.46142 6.01378 -126544 -159823 15606 2608.55 3935.79 -25721.8 -7.41822 
816 2 6.8892 5.18981 6.46264 6.02134 -123035 -162004 -22414.5 8348.07 9197.08 -1946.57 -7.41556 
817 2 6.22855 3.9353 6.46963 6.01996 -137770 -148604 21535.5 -15015.9 11997.1 -17472.6 -7.41821 
818 2 6.98599 2.73648 6.4696 6.0231 -136493 -153232 -16767.4 -8669.3 1308.39 -4102.84 -7.41567 
819 2 6.32624 1.4815 6.47481 6.01992 -143292 -144591 13328.8 -31492.2 15910.3 -11000.6 -7.41736 
820 2 7.08399 0.282763 6.47204 6.01912 -144093 -143920 -532.485 -17901 -8570.72 -9204.59 -7.41664 
858 2 8.87449 8.95142 6.43456 6.00969 -86761.6 -196768 -33294.1 27830.6 18368.7 -5291.71 -7.41592 
859 2 8.21106 7.69854 6.4439 6.00428 -116617 -175554 27513.4 3893.24 9827.86 -41898.2 -7.41978 
860 2 8.96766 6.49926 6.44495 6.01094 -112218 -169456 -35569.7 9633.64 14807 -10579.5 -7.41555 
861 2 8.30608 5.2453 6.45409 6.01544 -139861 -152639 27527.2 -15285.6 16463.6 -29640.1 -7.41942 
862 2 9.06294 4.04607 6.4546 6.01592 -131318 -151771 -29957.7 -9067.38 8844.82 -10763.2 -7.41558 
863 2 8.40275 2.79129 6.46187 6.01805 -147164 -140515 19241 -32974.6 21496 -17994.8 -7.41848 
864 2 9.16019 1.5923 6.46032 6.01488 -140234 -143657 -16094.7 -25631.9 -3899.74 -10867 -7.41623 
865 2 8.50073 0.337142 6.46475 6.01741 -144539 -139622 1664.23 -41855.9 17205.9 -10703.9 -7.41706 
903 2 10.2918 9.0062 6.42479 5.99944 -100898 -191828 53121.6 4131.03 9218.62 -42071.8 -7.42226 
905 2 10.3846 6.55351 6.43426 6.01131 -129349 -169712 46584.9 -19021.6 24477.3 -36314.3 -7.42157 
907 2 10.4797 4.09986 6.44452 6.01307 -145051 -149667 31154.2 -38808.2 32352.2 -30436.1 -7.42016 
909 2 10.5769 1.64564 6.45114 6.00994 -145271 -139811 10772 -55400 28560.1 -23955.7 -7.41839 
273 1 10.9617 8.17271 2.97436 6.01014 -177712 -110103 -59064.3 6599.5 11410.2 -9352.21 -7.41493 
274 1 11.6226 6.91783 2.97568 6.01198 -183040 -114981 63323.9 5081.16 11280.7 -40098.3 -7.42307 
275 1 10.8682 5.71718 2.96494 6.01107 -156405 -127125 -47236.3 27619.9 4270.19 -16719.1 -7.41528 
276 1 11.5288 4.46239 2.9659 6.00457 -167244 -128694 42590.3 25609.3 28708.8 -34209.8 -7.42123 
277 1 10.7726 3.26264 2.95563 6.01028 -142292 -138642 -29825.3 45530.7 -2299.44 -19182.8 -7.41584 
278 1 11.4326 2.0077 2.95695 5.99977 -150370 -137600 17486.7 45616.3 34316.4 -27672.4 -7.41909 
279 1 10.6752 0.808561 2.9491 6.01029 -140019 -140322 -10775.4 58394.9 -14564.5 -19758.8 -7.41682 
318 1 13.7931 8.06722 2.99064 6.01385 -169957 -117983 100427 7023.68 3146.79 -21870.4 -7.42584 
319 1 13.0394 6.86603 2.98281 6.02087 -164206 -122571 -78826.3 30395.6 -726.307 -3691.96 -7.41399 
320 1 13.7008 5.61157 2.98352 6.00436 -168011 -123501 74690.9 34447.8 22474.8 -23957 -7.424 
321 1 12.9456 4.41107 2.97434 6.01429 -152364 -134541 -49307.6 56764.8 -4219.7 -13043.2 -7.41529 
322 1 13.6062 3.15642 2.97431 5.99249 -156094 -132437 40716.5 62557 40472.6 -24362.3 -7.42132 
323 1 12.8494 1.95668 2.96597 6.00475 -142143 -141635 -21824.1 78582.8 -11460.5 -18238 -7.41659 
324 1 13.509 0.701696 2.96745 5.99288 -144636 -141801 7853.66 81046.9 34559.4 -26056.4 -7.41872 
363 1 15.21 8.01574 2.99198 6.02517 -149948 -134385 -110094 16794.4 -4694.73 2610.46 -7.41242 
364 1 15.8727 6.762 2.99196 6.00917 -148619 -136497 101490 30431.4 18235.5 -3098.25 -7.42593 
365 1 15.1176 5.56132 2.98637 6.01673 -150274 -139782 -77175.7 49051.7 -10349.1 228.02 -7.41405 
366 1 15.7793 4.30723 2.98414 5.99519 -150322 -135642 65142.7 62306.4 37962 -2587.28 -7.42335 
367 1 15.023 3.10708 2.9785 6.00527 -145763 -145557 -38021.1 80929.2 -11030 -1725.34 -7.41594 
368 1 15.6832 1.85243 2.97636 5.98932 -145393 -139386 27004.1 92128 43302.8 -6196.49 -7.42033 
369 1 14.9258 0.652783 2.97298 5.99689 -141491 -145052 -6523.31 100989 -24645.9 -4196.8 -7.41775 
407 1 17.3812 9.1644 2.99198 6.02516 -123774 -160688 -110094 -1661.44 86.7824 -5371.03 -7.41242 
408 1 18.045 7.9116 2.99064 6.01384 -124981 -163090 100427 19092.4 17367.3 13659.9 -7.42584 
409 1 17.2896 6.71118 2.98815 6.01906 -128878 -158616 -92479.7 26543 -7880.96 3229.1 -7.41333 
410 1 17.9524 5.45781 2.9833 6.0039 -137445 -152979 74361.3 47260.9 35655.9 17093.2 -7.42399 
411 1 17.1961 4.25777 2.98067 6.00663 -136931 -155650 -55309.3 57721.2 -7481.48 12322.3 -7.41515 
412 1 17.8573 3.00357 2.97469 5.99572 -142370 -144098 39418.2 76905 43925.2 18583.6 -7.42128 
413 1 17.1001 1.80392 2.97395 5.99726 -140230 -150698 -21108.9 87768.5 -15229.5 17476.9 -7.4169 
414 1 17.7597 0.549049 2.97015 5.99571 -141122 -142823 7109.58 96952 33094.2 13737 -7.41868 
452 1 20.2178 9.05948 2.98352 6.00436 -104846 -186579 74690.8 2138.32 9509.5 31442.6 -7.424 
453 1 19.4622 7.8594 2.98281 6.02088 -106603 -180183 -78826.6 2716.01 3560.47 1216.84 -7.41399 
454 1 20.1257 6.60658 2.97568 6.01199 -127650 -170306 63324 27122.9 29085.7 29818.6 -7.42307 
455 1 19.3694 5.40678 2.97436 6.01017 -121202 -166565 -59064.7 25833.9 2393.7 14558 -7.41493 
456 1 20.0311 4.15295 2.9657 6.00768 -141882 -152386 40278.2 49904.5 38918.4 30023.6 -7.42117 
457 1 19.2741 2.95347 2.96582 6.00029 -133774 -154526 -33402.4 52781 -1870.26 23996.2 -7.41611 
458 1 19.9342 1.69872 2.95868 6.00338 -143068 -141839 14290.4 70323.2 34271.5 26732.2 -7.41899 
459 1 19.1765 0.499491 2.96224 5.99504 -141002 -145570 -7756.05 71305.2 -21606.6 27571.6 -7.41756 
904 2 11.0478 7.80648 6.42537 6.0156 -100919 -185006 -58723.3 6192.03 10325.1 -5963.14 -7.41487 
906 2 11.1411 5.35392 6.43523 6.00914 -119708 -164929 -47454.7 -14066.1 9052.45 -15868.8 -7.41531 
908 2 11.2368 2.90054 6.44404 6.00498 -133997 -150915 -30071.2 -36806.6 2187 -21483.2 -7.41605 
910 2 11.3346 0.446584 6.44729 6.00136 -141183 -143433 -8617.33 -51732.2 -17653.6 -24085.8 -7.41724 
948 2 13.1292 9.11187 6.41174 6.02299 -108266 -178872 -92319 5532.75 2939.6 6269.23 -7.41332 
949 2 12.465 7.85941 6.41574 6.01186 -118220 -175429 81592.7 -17529.6 20348.9 -24625 -7.4245 
950 2 13.2208 6.65931 6.41731 6.0175 -117216 -170263 -78982.6 -18574.4 -1510.79 -6086.11 -7.41401 
951 2 12.558 5.40604 6.42459 6.00816 -135553 -160033 60055.9 -42348.9 36718.7 -26698.8 -7.42285 
952 2 13.3146 4.20628 6.42584 6.00488 -130201 -160050 -49655.3 -45979.1 -1492.37 -18517.3 -7.4154 
953 2 12.6536 2.95203 6.4336 6.00219 -142723 -146004 31308.3 -67352.8 41094.6 -27245.9 -7.4205 
954 2 13.4109 1.75259 6.4325 5.99583 -138211 -150735 -20968.7 -73360.7 -12012.8 -25361 -7.41684 
955 2 12.7514 0.497637 6.43761 5.99976 -140906 -141643 3384.55 -83893.5 28899.1 -22749.3 -7.41824 
993 2 14.5464 9.16456 6.40595 6.01558 -125174 -158934 111781 -3577 4253.41 -9688.03 -7.42661 
994 2 15.3011 7.9638 6.40804 6.02408 -133354 -151073 -110122 -14347.4 -5792.58 450.918 -7.41243 
995 2 14.6378 6.71055 6.41011 6.00906 -135997 -151354 95990.1 -33080.5 24533.9 -9227.73 -7.42554 
996 2 15.3935 5.51016 6.41372 6.01374 -139142 -151568 -77307 -45250.1 -10215.8 -5467.38 -7.41407 
997 2 14.7315 4.25632 6.41829 5.99701 -143113 -144098 61337.5 -63731.3 40978.7 -12382.3 -7.42304 
998 2 15.4881 3.05635 6.42136 6.00235 -141553 -151290 -37968.2 -78382.2 -10532.3 -10254.4 -7.416 
999 2 14.8278 1.80176 6.42564 5.99261 -142682 -141646 24887.5 -92665 42167.7 -9762.64 -7.42013 
1000 2 15.5853 0.602172 6.42604 5.9958 -141567 -146650 -5737.35 -100164 -25864.4 -10898.1 -7.41786 
1039 2 16.718 8.0153 6.40595 6.01558 -153516 -130540 111781 -12857.5 6263.56 8527.14 -7.42661 
1040 2 17.4723 6.81428 6.41174 6.02297 -156446 -130673 -92319.4 -33240.3 -6899.21 -588.549 -7.41332 
1041 2 16.8103 5.56019 6.41218 6.00228 -156640 -130307 83337.9 -43270.5 26003.5 10018.9 -7.42467 
1042 2 17.5658 4.35968 6.41924 6.01277 -150973 -139261 -55128.1 -64235 -8728.83 5339.8 -7.41508 
1043 2 16.9049 3.10522 6.4208 5.99041 -151039 -134657 45032.5 -74958 42917.7 11643.8 -7.42177 
1044 2 17.6618 1.90536 6.42698 6.00166 -143211 -144405 -21725 -90814.9 -14766.5 9064.87 -7.41675 
1045 2 17.0021 0.650454 6.42691 5.99152 -143609 -142623 9788.48 -95899.7 36397.4 16202.4 -7.41897 
1084 2 19.5505 8.11992 6.41731 6.01748 -173139 -114237 -78982.9 -13524.7 6026.44 1734.85 -7.41401 
1085 2 18.8891 6.86531 6.41574 6.01184 -176209 -117359 81593.2 -16124.7 11151.4 29934.6 -7.4245 
1086 2 19.6435 5.66447 6.42537 6.01558 -158740 -127246 -58723.2 -39422.5 1.5422 11922.7 -7.41487 
1087 2 18.9825 4.40984 6.42479 5.99944 -165437 -127348 53121.3 -41520.3 31826.1 29019.9 -7.42226 
1088 2 19.7386 3.20982 6.43456 6.00967 -145157 -138460 -33294.3 -61507.3 -4601.18 18554 -7.41592 
1089 2 19.0785 1.95496 6.43371 5.99324 -150408 -137047 21731.6 -65186.7 39365.7 27982.1 -7.41969 
1090 2 19.8359 0.755592 6.44129 6.00395 -140037 -141162 -10227.7 -75660.1 -17608.4 21989.3 -7.41716 
1129 2 20.9672 8.17255 6.42459 6.00817 -190485 -105091 60055.3 10460.5 4762.45 45149.3 -7.42284 
1131 2 21.0602 5.71661 6.43426 6.01132 -176061 -122975 46585.4 -8105.36 19209.8 39355 -7.42157 
1133 2 21.1553 3.26171 6.4439 6.00425 -157345 -134719 27513.8 -27520.2 31371.2 29460.2 -7.41978 
1135 2 21.2527 0.807364 6.45082 6.00469 -144818 -140367 3662.25 -42039.4 25383.8 22158.5 -7.41789 
497 1 21.6351 9.00565 2.97434 6.01429 -89788.7 -197106 -49307.3 -20725.7 13406 2867.75 -7.41529 
498 1 22.299 7.75308 2.9659 6.00457 -116203 -179746 42590.8 3997.19 15272.2 41967.5 -7.42123 
499 1 21.5427 6.55354 2.96494 6.01103 -110437 -173044 -47236.3 -1229.07 12343.8 12057.6 -7.41528 
500 1 22.2047 5.29986 2.95536 6.01294 -140311 -156639 34663.9 24103.3 25387.3 33224.8 -7.42037 
501 1 21.448 4.10047 2.9549 6.00964 -128932 -154773 -35907 19164.7 8603.29 17096.8 -7.41565 
502 1 22.1083 2.84584 2.94669 6.01468 -147706 -141691 19890.5 42263.8 28463.4 24476.1 -7.41897 
503 1 21.3509 1.64673 2.94857 6.00687 -138645 -144976 -19127 38317 -5205.56 19152.4 -7.41644 
504 1 22.0104 0.391598 2.94347 6.01245 -143184 -139083 -128.231 52063.9 20297 17911.6 -7.41735 
542 1 24.473 8.89709 2.95695 5.99978 -101380 -186635 17486.6 -17313.8 6807.01 43555.5 -7.41909 
543 1 23.7162 7.69805 2.95563 6.01024 -100160 -180914 -29824.9 -21198.1 17762.9 7599.59 -7.41584 
544 1 24.3784 6.44445 2.94637 6.0115 -129347 -161265 23710.2 2510.06 9178.61 33235.9 -7.41913 
545 1 23.6216 5.24527 2.94541 6.01606 -123758 -158776 -29919.1 -3839.96 11630.6 8020.14 -7.41551 
546 1 24.2823 3.99079 2.93756 6.01816 -143377 -145160 23750.8 20902.3 16250.6 20815.7 -7.41875 
547 1 23.5251 2.79176 2.93776 6.0197 -137474 -147619 -21846.5 14323.2 2827.48 7255.79 -7.41574 
548 1 24.1848 1.53673 2.93223 6.01857 -145768 -140164 12242.7 36131.8 18631.5 11214.3 -7.41765 
549 1 23.4271 0.337883 2.9352 6.01633 -143077 -141804 -4326.56 24109.6 -10950.9 9354.03 -7.41676 
587 1 25.8902 8.84068 2.9491 6.0103 -89735.2 -190631 -10775.6 -29293.2 24394.5 -2733.47 -7.41681 
588 1 26.5525 7.58716 2.94025 6.0123 -117458 -167366 4737.7 -11327.6 2811.96 24425.6 -7.41758 
589 1 25.7954 6.38836 2.93828 6.01983 -112471 -170897 -17157.1 -16826.1 12364 -1083.3 -7.41591 
590 1 26.4565 5.13413 2.93095 6.01825 -131092 -154762 17146.9 3193.36 6319.52 19262.2 -7.41795 
591 1 25.6991 3.93535 2.93 6.02472 -128983 -161350 -17522.2 -1847.51 4808.4 1318.41 -7.41554 
592 1 26.3593 2.68063 2.92385 6.02009 -138380 -149000 18080 21616.7 15147.1 15130.2 -7.41766 
593 1 25.6016 1.48198 2.92501 6.02114 -139908 -151983 -7666.09 13045.8 -3192.13 8353.35 -7.41603 
594 1 26.261 0.226829 2.92085 6.02104 -146068 -145486 5166.6 32256.9 11578 10735.5 -7.4166 
632 1 28.7269 8.72911 2.93968 6.01491 -120606 -163305 -16095.1 -14314.1 7461.2 8810.66 -7.41623 
633 1 27.9696 7.53042 2.93525 6.01741 -104639 -179630 1663.83 -18766.8 17873.1 -9548.83 -7.41706 
634 1 28.6309 6.2763 2.92796 6.01911 -128420 -159606 -532.113 -8846.37 3686.9 12024.6 -7.41664 
635 1 27.8735 5.0777 2.92514 6.02318 -116729 -174598 -4056.05 -13569 9899.12 -4318.24 -7.41616 
636 1 28.5341 3.82326 2.91809 6.01825 -133440 -157070 9253.92 2053.72 14853.1 17906 -7.41688 
637 1 27.7762 2.6249 2.9169 6.02047 -129675 -167678 -6258.82 -892.924 5416.14 10012.9 -7.41575 
638 1 28.4358 1.36991 2.91077 6.01969 -140668 -152040 5805.66 18108 14193.8 20657.2 -7.41639 
639 1 27.6777 0.171546 2.91339 6.01686 -145772 -148590 1165.8 8604.19 -4141.04 22918.6 -7.4162 
669 1 30.144 8.67265 2.93813 6.01805 -113641 -174022 19240.8 -13572.6 26331.2 -9618.58 -7.41848 
670 1 30.8049 7.41829 2.93039 6.0231 -141419 -148150 -16767.2 -11625.5 4207.16 918.469 -7.41567 
671 1 30.0479 6.21944 2.92519 6.01992 -116958 -170768 13328.5 -16290.7 17481.7 -8278.01 -7.41736 
672 1 30.7085 4.96489 2.91791 6.01953 -145538 -150085 -4626.36 -12729.1 12291.4 8185.96 -7.41594 
673 1 29.9511 3.76637 2.91338 6.01944 -124947 -169322 3322.57 -13571.9 18691.7 1625.9 -7.41625 
674 1 30.6109 2.51139 2.90611 6.01731 -145680 -149525 -2279.31 -2340.32 19645.7 13753.2 -7.41581 
675 1 29.8526 1.31327 2.90436 6.01754 -138017 -157921 -4795.68 -2445.95 8441.69 16426.8 -7.4156 
676 1 30.5113 0.0576706 2.90056 6.02265 -146836 -147535 -6578.29 6757.95 1174.67 13779.6 -7.41546 
1130 2 21.7208 6.97152 6.43523 6.00913 -165904 -118760 -47454.9 -12397.8 9216.28 15774.4 -7.41532 
1132 2 21.8156 4.51659 6.44495 6.01094 -146807 -134788 -35569.8 -29545.4 1759.12 18112.7 -7.41555 
1134 2 21.9123 2.06245 6.45298 6.01371 -139555 -140855 -19698.4 -45565.3 -7152.1 16722.6 -7.41613 
1174 2 23.7977 8.28108 6.44404 6.00497 -178582 -106301 -30071.2 11161 17512 12635.8 -7.41605 
1175 2 23.1376 7.02579 6.44452 6.01307 -182068 -112645 31154.4 17320.1 10182.3 43236.3 -7.42016 
1176 2 23.8925 5.8257 6.4546 6.01593 -154506 -128458 -29957.8 -4214.47 4898.94 13041.1 -7.41558 
1177 2 23.2324 4.57063 6.45409 6.01544 -162631 -129794 27527.5 2129.8 17437.4 29078.3 -7.41942 
1178 2 23.9889 3.37132 6.46264 6.0213 -145068 -140079 -22414.6 -21020.8 -2912.81 8938.75 -7.41556 
1179 2 23.3291 2.11622 6.46142 6.01378 -149220 -137151 15606 -15832 20308 16269 -7.41822 
1180 2 24.0866 0.917315 6.46769 6.02105 -144388 -141686 -6813.73 -36344.2 -11485.9 7094.46 -7.41631 
1219 2 25.2144 8.33707 6.45114 6.00994 -189131 -95974.4 10771.7 30051.9 6465.46 36711.7 -7.41839 
1220 2 25.9689 7.13681 6.46032 6.01491 -164991 -118947 -16095.2 11351.5 11361 2056.4 -7.41623 
1221 2 25.3093 5.88136 6.46187 6.01806 -170685 -116957 19240.4 19272.9 4836.07 27612.6 -7.41848 
1222 2 26.0651 4.68181 6.4696 6.02312 -156509 -133034 -16767.2 -2888.34 2899.48 3183.95 -7.41567 
1223 2 25.4057 3.42643 6.46963 6.01995 -158852 -127451 21535.8 2820.28 9133.33 19126.6 -7.41821 
1224 2 26.1625 2.22731 6.47635 6.02477 -153399 -140899 -9946.01 -22435.4 -1800.64 5922.77 -7.41573 
1225 2 25.5033 0.971936 6.4747 6.01852 -149260 -138415 9962.68 -13292 10370.8 14487.4 -7.41721 
1264 2 28.0451 8.44888 6.45975 6.01229 -164703 -120038 4737.7 15861.6 22559.7 -9778.37 -7.41758 
1265 2 27.3857 7.19328 6.46475 6.0174 -177094 -107081 1664.03 23028.7 667.132 20252.9 -7.41706 
1266 2 28.1411 5.99353 6.47204 6.0191 -159481 -128452 -532.645 9084.52 12257 -2819.96 -7.41664 
1267 2 27.4819 4.73793 6.47481 6.01991 -171471 -116284 13329.2 15178.7 1571.59 19278.6 -7.41736 
1268 2 28.238 3.53854 6.48208 6.0195 -160023 -135751 -4626.46 -4333.31 13234.3 6552.15 -7.41594 
1269 2 27.5792 2.28285 6.48292 6.01998 -162270 -127589 12845.6 -546.659 8180.35 23630.3 -7.41706 
1270 2 28.3365 1.084 6.4893 6.01775 -152834 -144188 -2712.87 -19782.1 3542.57 15967.1 -7.41581 
1309 2 29.4618 8.5052 6.46172 6.01981 -170862 -112455 -17157 16964.7 5243.57 11249 -7.41591 
1310 2 30.2175 7.30553 6.46905 6.01823 -146087 -139844 17147 11825.8 19841.1 -4158 -7.41795 
1311 2 29.5579 6.05019 6.47485 6.02318 -171960 -119565 -4055.96 18292 1209.98 10732.9 -7.41616 
1312 2 30.3139 4.8508 6.48191 6.01823 -149417 -141218 9253.72 11283.7 22933.5 3910.74 -7.41689 
1313 2 29.6547 3.59526 6.48662 6.01941 -170050 -124243 3322.54 12356.5 10753.8 15374.6 -7.41625 
1314 2 30.4116 2.39637 6.49389 6.01729 -150533 -144499 -2279.06 500.001 21733.6 10136.6 -7.41581 
1315 2 29.7531 1.14058 6.49561 6.02206 -156083 -137998 -1542.61 1039.05 9426.75 21302.4 -7.41583 
1350 2 31.6343 7.36203 6.46999 6.02469 -154801 -135532 -17522.1 13130.3 3545.92 3505.56 -7.41554 
1351 2 31.7307 4.90802 6.4831 6.02048 -158916 -138302 -6258.6 16073.9 11379 -316.414 -7.41575 
1352 2 31.8284 2.45396 6.49564 6.01752 -155020 -140904 -4795.82 7380.53 18446.8 -901.703 -7.4156 
39 1 1.41662 18.3813 2.99196 6.02409 -159077 -125324 -110123 419.22 -2506.06 -5242.05 -7.41242 
40 1 0.663526 17.1799 2.99405 6.01558 -147433 -136652 111781 -16365.8 10517.1 1160.73 -7.42661 
41 1 1.32652 15.9262 2.98826 6.02299 -166004 -121109 -92319.7 -27894 -3959.42 -5679.82 -7.41332 
42 1 0.573944 14.7247 2.98426 6.01183 -145875 -147549 81593.6 -33404.4 31499.9 -5310.06 -7.4245 
43 1 1.23669 13.471 2.97463 6.01558 -169248 -116533 -58723.4 -33394.6 10326.8 -5959.23 -7.41487 
44 1 0.483178 12.2701 2.96574 6.01135 -143225 -155769 46584.2 -26839 43687.9 -3040.21 -7.42157 
45 1 1.1447 11.0159 2.95504 6.01096 -163394 -118274 -35569.4 -20085.4 16565.4 -7533.78 -7.41555 
46 1 0.389521 9.81593 2.94591 6.01541 -136225 -156325 27527.3 -13152.9 33900.9 561.534 -7.41942 
85 1 2.83358 18.329 2.98989 6.00905 -176111 -111209 95990 -9787.74 4275.52 25861 -7.42554 
86 1 3.49533 17.0744 2.98628 6.01374 -187757 -102984 -77307.3 -17376.1 -9842.25 -6113.86 -7.41407 
87 1 2.7436 15.8724 2.98782 6.00228 -174406 -112722 83337.6 -32917.4 21678.8 17510.1 -7.42467 
88 1 3.40551 14.6179 2.98076 6.01276 -197907 -92486.2 -55127.6 -37247.4 260.215 -10230 -7.41509 
89 1 2.65371 13.416 2.97521 5.99944 -172732 -119995 53121.4 -37193.6 41044.5 13052.5 -7.42226 
90 1 3.31491 12.1612 2.96544 6.00968 -193473 -90169.6 -33294.5 -33730.8 13766.9 -13261.6 -7.41592 
91 1 2.56161 10.9603 2.9561 6.00427 -164142 -127878 27513.9 -23560.4 41198.6 12438 -7.41978 
92 1 3.2217 9.70504 2.94702 6.01368 -179934 -100325 -19698.4 -22210 10906.2 -14554.3 -7.41613 
130 1 5.66396 18.2228 2.97416 6.00488 -192450 -97808 -49655.3 -10192.6 -16783 7965.73 -7.4154 
131 1 4.91219 17.0208 2.98171 5.99703 -198990 -88268.3 61337.4 -31307.1 9766.07 41680 -7.42304 
132 1 5.57309 15.7656 2.97864 6.00235 -216789 -76104.2 -37967.9 -35088.6 -14146.7 -3993.92 -7.416 
133 1 4.82236 14.563 2.9792 5.99041 -203647 -82089.5 45033.1 -44526.9 31543.3 31345.4 -7.42177 
134 1 5.48304 13.3076 2.97302 6.00166 -222662 -64759.8 -21725.3 -44841.4 467.692 -17320.4 -7.41675 
135 1 4.73168 12.1054 2.96629 5.99328 -196853 -90611.5 21730.8 -38265.8 43917 20100.7 -7.41969 
136 1 5.39167 10.8498 2.95871 6.00396 -206457 -74909.7 -10227.8 -37306.8 10239.5 -26244.2 -7.41716 
137 1 4.63845 9.64875 2.94918 6.00468 -177843 -107233 3662.97 -22993.6 31881.8 10904.3 -7.41789 
175 1 7.08067 18.1681 2.9664 6.00218 -203393 -85281.3 31309.2 -32099.9 -3048.89 49211.3 -7.4205 
176 1 7.74075 16.9125 2.9675 5.99584 -211215 -77764.9 -20969 -31307.3 -27969.7 2277.28 -7.41684 
177 1 6.98974 15.7101 2.97436 5.9926 -222076 -62173.6 24888.4 -46704.8 12629.7 41399.7 -7.42013 
178 1 7.64988 14.4543 2.97396 5.9958 -232175 -56083.5 -5738.1 -47971.4 -22369.8 -16949.9 -7.41786 
179 1 6.89963 13.2514 2.97309 5.99148 -225891 -60313.6 9788.98 -48438.9 32230.7 23420 -7.41897 
180 1 7.55963 11.9956 2.97015 5.99571 -226351 -57571.6 7108.81 -47729.6 -4650.23 -35529.3 -7.41868 
181 1 6.8083 10.7933 2.96224 5.99504 -206184 -80291.4 -7755.65 -33744.9 34680.9 4926.62 -7.41756 
182 1 7.46805 9.5376 2.95868 6.00338 -202986 -81859.6 14290.5 -35656 6015.16 -43046 -7.41899 
220 1 9.90996 18.0577 2.95271 6.00136 -187699 -96917.9 -8617.69 -24964.1 -29684.9 -3245.05 -7.41724 
221 1 9.15735 16.8563 2.96239 5.99975 -214154 -68488.1 3385.35 -41600.9 -5251.42 36402.5 -7.41824 
222 1 9.81718 15.6005 2.96745 5.99287 -212740 -73655.2 7854 -41741.3 -39844.9 -16902.1 -7.41872 
223 1 9.06641 14.3979 2.97298 5.99688 -231660 -54847.7 -6523.25 -48915 8688.5 23442.1 -7.41775 
224 1 9.72663 13.1422 2.97636 5.98928 -220638 -64116.4 27004.5 -48625.8 -27017.7 -34403.4 -7.42033 
225 1 8.97619 11.9394 2.97395 5.99725 -224152 -66796.3 -21109.8 -39466.3 22750.1 4450.45 -7.4169 
226 1 9.63653 10.6838 2.97469 5.99572 -210210 -76316.1 39418.5 -37598.6 -5869.04 -47332.1 -7.42128 
227 1 8.88472 9.48185 2.96582 6.0003 -195059 -93200.8 -33402.4 -17547.2 21717 -10378.9 -7.41611 
678 2 0.089852 15.9788 6.40936 6.01386 -137086 -150991 100427 25968.5 20513.5 8210.61 -7.42584 
679 2 0.179695 13.5244 6.42432 6.01197 -136209 -161678 63324.1 31839.9 40366.4 10279.4 -7.42307 
680 2 0.271824 11.0705 6.44464 6.01292 -131745 -165296 34663.6 19063.3 41467.5 5374.49 -7.42037 
716 2 2.17159 17.2853 6.40804 6.00918 -113288 -171947 101490 9849.07 6434.7 17341.7 -7.42593 
717 2 1.50714 16.0328 6.41185 6.01908 -128181 -159396 -92479.8 26220.1 -1143.2 -8439.41 -7.41334 
718 2 2.26118 14.8321 6.4167 6.0039 -108253 -182154 74360.8 30232 32631.3 22332.2 -7.42399 
719 2 1.59691 13.5795 6.42564 6.01018 -132721 -154991 -59064.7 32693.2 13804.4 -5205.57 -7.41493 
720 2 2.35187 12.3795 6.4343 6.00767 -106571 -187642 40277.6 29379.9 45460.5 18691.6 -7.42117 
721 2 1.68891 11.1262 6.4451 6.00962 -131609 -151981 -35906.6 20843.2 19108.1 -1098.08 -7.41565 
722 2 2.44526 9.92699 6.45331 6.01467 -106750 -182713 19890.4 18413.5 35428.9 12411.9 -7.41897 
761 2 3.58896 17.3389 6.41363 6.01673 -99903.4 -190154 -77176.1 20097.1 -4977.16 -9076.1 -7.41405 
762 2 4.34418 16.1388 6.41586 5.99521 -85406.4 -200556 65142.6 24697.2 16741 34169.6 -7.42335 
763 2 3.67859 14.887 6.41933 6.00663 -100898 -191645 -55309.3 37088.9 6930.63 -12640.7 -7.41515 
764 2 4.43419 13.6874 6.42531 5.99571 -77152.6 -209295 39418.2 39052.7 38056.4 28748.1 -7.42128 
765 2 3.76917 12.4353 6.43418 6.00032 -103603 -184802 -33402.8 35548.5 19846.6 -13617.2 -7.41611 
766 2 4.52577 11.2363 6.44132 6.00338 -81295.2 -203739 14290.8 34629.3 40286.4 16314.6 -7.41899 
767 2 3.86242 9.98336 6.45143 6.00685 -110309 -173456 -19126.9 21875.5 13984.3 -14083.8 -7.41644 
806 2 6.42735 17.4453 6.42569 5.99251 -84191.7 -204318 40716.7 20941 -862.024 47231.2 -7.42132 
807 2 5.7617 16.1937 6.4215 6.00527 -75479.9 -215824 -38020.9 40419.1 -7008.74 -8690.02 -7.41594 
808 2 6.51813 14.9946 6.42364 5.98934 -61105.3 -223609 27004.5 43404.8 16285 40600.2 -7.42033 
809 2 5.85172 13.7433 6.42605 5.9973 -72056.1 -218909 -21109.6 48500.4 7521.04 -21927.3 -7.4169 
810 2 6.60865 12.5446 6.42985 5.9957 -58405.6 -225504 7109.67 49206.8 28444.4 21791.3 -7.41868 
811 2 5.94315 11.2928 6.43776 5.99499 -82569.6 -203887 -7756.27 37697.3 13074.3 -32497.4 -7.41756 
812 2 6.70039 10.0942 6.44129 6.00397 -75416.6 -205854 -10227.9 38287.6 27847.7 4254.73 -7.41716 
851 2 7.84478 17.5009 6.43403 6.00474 -73700.5 -210032 -21824.6 39051.3 -21523.9 -805.782 -7.41659 
852 2 8.60181 16.3022 6.43255 5.99286 -72240.5 -214059 7854.91 39364.9 -5284.75 42958.2 -7.41872 
853 2 7.93575 15.0507 6.42702 5.9969 -56658.7 -229830 -6524.5 52076.9 -15957.1 -19244.9 -7.41775 
854 2 8.69287 13.8521 6.42604 5.99581 -58592.2 -229657 -5737.86 52313 3494.82 27847.7 -7.41786 
855 2 8.02625 12.601 6.42691 5.99151 -59755.8 -226449 9788.86 47552 -4166.97 -39622.5 -7.41897 
856 2 8.78321 11.4023 6.42698 6.00167 -65467.4 -222092 -21724.9 45963.6 15233.6 8255.47 -7.41675 
857 2 8.11777 10.1505 6.43371 5.99325 -83955.1 -203407 21730.9 26776.9 4550.47 -48082.9 -7.41969 
897 2 10.0193 16.3586 6.43761 5.99976 -68818.7 -213742 3385.12 42235.8 -34150.9 -13653.2 -7.41824 
899 2 10.1105 13.9083 6.42565 5.99261 -61708.6 -222585 24888.1 45835.5 -29537.6 -31636.9 -7.42013 
901 2 10.2008 11.4578 6.4208 5.99041 -73918.5 -211882 45032.6 30326.1 -11374.4 -42990.2 -7.42177 
265 1 11.3267 18.0012 2.9491 6.01029 -190815 -89489.8 -10775.5 -28996.8 -9830.18 22492.5 -7.41681 
266 1 11.9864 16.7457 2.95695 5.99975 -180329 -107754 17487 -28309.7 -41123.5 -15882.3 -7.41909 
267 1 11.2338 15.5442 2.96597 6.00476 -209843 -73979.6 -21824.1 -39533.5 -10063.9 19043.8 -7.41659 
268 1 11.8944 14.2889 2.97431 5.99249 -192422 -96059 40716.6 -41480.9 -41334.6 -22868.9 -7.42132 
269 1 11.1433 13.0866 2.9785 6.00527 -215690 -75581.9 -38020.9 -40652.2 4021.56 10414.4 -7.41594 
270 1 11.8045 11.8316 2.98414 5.99523 -193170 -92681 65141.6 -37421.9 -21221.5 -31583.2 -7.42335 