ITEM: TIMESTEP
375
ITEM: NUMBER OF ATOMS
26936
ITEM: BOX BOUNDS pp pp pp
0.0000000000000000e+00 1.4251150300000000e+02
0.0000000000000000e+00 2.4683716400000000e+02
0.0000000000000000e+00 1.5000000000000000e+01
ITEM: ATOMS id type x y z c_csym c_2[1] c_2[2] c_2[3] c_2[4] c_2[5] c_2[6] c_3 
229 1 0.864748 8.58062 2.91377 6.01169 -178901 -146239 -3048.55 -32893.3 17619.4 -2421.17 -7.41561 
230 1 0.13537 7.3651 2.90968 6.01662 -153981 -167771 3224.16 -27049.2 26535.8 -2332.2 -7.41615 
231 1 0.822623 6.12496 2.90554 6.01276 -175726 -148818 -1050.72 -21355.9 19417.5 -3123.28 -7.41553 
232 1 0.0920742 4.91007 2.9013 6.01954 -156048 -166789 1073.81 -14672.7 22247.4 -1618.95 -7.41565 
233 1 0.778258 3.66941 2.89779 6.01679 -170436 -153019 -400.205 -9183.99 15557.6 -3801.35 -7.41538 
234 1 0.0466809 2.45507 2.89468 6.02388 -158297 -164497 -279.142 -4129.64 12654.9 -671.145 -7.41532 
235 1 0.732134 1.21405 2.893 6.02456 -164440 -158501 -589.177 -1595.1 6042.5 -3963.67 -7.41524 
236 1 6.37096e-06 2.97153e-07 2.89213 6.029 -161411 -161378 -699.603 -33.9961 0.421208 1.345 -7.41521 
431 1 2.28221 8.55425 2.91446 6.0115 -170988 -150457 3713.3 -27708.9 25908.1 -5093.44 -7.41638 
432 1 2.96935 7.31394 2.91135 6.01343 -192638 -131646 -630.103 -25301.1 16916.3 -10828.5 -7.41577 
433 1 2.24006 6.09829 2.90663 6.01298 -170303 -152874 1444.6 -15329.5 24159.5 -7428.04 -7.41586 
434 1 2.92626 4.85755 2.90381 6.01438 -184821 -138744 437.996 -12328.3 16404 -13222.4 -7.41564 
435 1 2.1957 3.64259 2.89924 6.01617 -167372 -155930 10.535 -2685.21 17139.7 -9130.3 -7.41548 
436 1 2.8812 2.40155 2.8978 6.01982 -173815 -149138 273.67 -1906.62 10407.7 -14583 -7.41546 
437 1 2.14958 1.18717 2.89467 6.02053 -163394 -159636 -511.006 5127.06 5683.25 -10202.1 -7.41529 
632 1 5.11479 8.50443 2.91768 6.01111 -205929 -116579 876.398 -25331.4 12487.1 -15124.9 -7.41616 
633 1 4.38672 7.28801 2.9134 6.00669 -185057 -138405 512.721 -12462.6 22162.5 -8992.19 -7.416 
634 1 5.07299 6.04724 2.91147 6.01262 -198335 -124243 2158.97 -11923.3 14601.1 -18769.8 -7.41608 
635 1 4.34364 4.83152 2.90665 6.01002 -179903 -144489 -595.693 1951.08 18051 -13025.2 -7.41564 
636 1 5.02927 3.59051 2.90558 6.01711 -185825 -136753 2024.42 986.626 12318 -21507.7 -7.41588 
637 1 4.29861 2.3755 2.90129 6.01404 -171428 -152762 -660.571 13312.2 9310.97 -16190.9 -7.41545 
638 1 4.98405 1.1345 2.90195 6.01649 -169794 -153325 855.38 8585.41 5526 -22113.1 -7.41565 
833 1 6.53211 8.47944 2.92004 6.00427 -195937 -127091 -1823.87 -8724.27 17451.2 -7204.02 -7.41601 
834 1 7.21859 7.23873 2.91892 6.00821 -206834 -113213 4675.11 -10331 11245.8 -20257 -7.41661 
835 1 6.49032 6.0223 2.91465 6.00642 -191005 -133850 -2570.9 7227.84 15543.7 -12318.9 -7.41571 
836 1 7.17622 4.78141 2.91393 6.0128 -195666 -125154 4487.08 4655.44 11927.9 -23611.8 -7.41643 
837 1 6.44663 3.56569 2.90964 6.01087 -181434 -143772 -2005.6 21813.6 9888.42 -16908.9 -7.41557 
838 1 7.13229 2.32479 2.91009 6.01437 -179745 -142447 2874.09 15886.2 8702.24 -25283.3 -7.41614 
839 1 6.40148 1.10977 2.90662 6.01327 -168235 -156078 -421.296 30043.1 1029.31 -20333.6 -7.41563 
1034 1 9.36338 8.43175 2.9254 6.00593 -208995 -108040 7929.01 -9561.04 7946.02 -19322.8 -7.41715 
1035 1 8.6359 7.21483 2.92177 6.00647 -196957 -126978 -5709.11 10691.8 11027 -8859.92 -7.41569 
1036 1 9.32222 5.97413 2.9212 6.00962 -200375 -117870 7567.66 6687.67 10407.6 -22061.2 -7.41701 
1037 1 8.59356 4.75782 2.91751 6.01018 -188847 -136274 -4653.86 27622.1 7817.84 -13597.4 -7.4156 
1038 1 9.27959 3.5171 2.91767 6.01337 -187150 -132885 5609.9 20905.2 10004.1 -23983.3 -7.41669 
1039 1 8.54968 2.30146 2.9144 6.01391 -176284 -148570 -2283.33 39990.7 1820.93 -17731.4 -7.41571 
1040 1 9.23583 1.06093 2.91577 6.00755 -170023 -152058 2354.94 28951.5 6452.66 -23893.6 -7.41628 
13499 2 0.552707 8.60549 6.48606 6.01281 -146738 -174049 4486.48 32791.9 26412.6 1476.43 -7.41643 
13500 2 0.594836 6.15073 6.49441 6.01709 -149725 -172574 2025.42 21670 24786.3 87.0484 -7.41588 
13501 2 0.639202 3.69596 6.50219 6.01981 -153613 -169262 274.445 9669.1 17834.6 -1719.83 -7.41546 
13502 2 0.685333 1.24107 6.507 6.02457 -158612 -164261 -588.525 1724.33 6455.72 -3249.31 -7.41524 
13503 2 7.55229e-06 -3.9416e-06 6.50787 6.029 -161377 -161386 -699.388 -35.472 0.2315 1.41916 -7.41521 
13697 2 1.97031 8.63192 6.48534 6.00643 -154325 -170447 -2571.23 28332.5 18440.6 -7301.52 -7.41571 
13698 2 2.70057 7.41695 6.48852 6.01269 -132209 -190106 2158.41 26153.1 23554.8 -3259.77 -7.41608 
13699 2 2.01239 6.17745 6.49334 6.01002 -154900 -169396 -594.969 16409.4 20304.8 -9120.07 -7.41564 
13700 2 2.74363 4.96299 6.49618 6.01439 -139470 -184127 438.505 13807.8 19653.3 -7592.64 -7.41564 
13701 2 2.05672 3.72282 6.50074 6.01612 -156447 -166972 10.8104 3634.82 16476.6 -10277.1 -7.41548 
13702 2 2.78867 2.5087 6.5022 6.01673 -149479 -174210 -400.231 2927.37 11072.3 -11570.6 -7.41538 
13703 2 2.10281 1.26796 6.50532 6.02385 -159422 -163592 -279.545 -4786.26 6909.7 -10622.3 -7.41532 
13704 2 2.83494 0.0538854 6.50451 6.02033 -161395 -161832 -320.359 -1811.39 -154.745 -14099.2 -7.41534 
13898 2 4.80766 8.68175 6.48231 6.01108 -117060 -205726 875.45 26034.3 19341.3 -3251.87 -7.41617 
13899 2 4.11825 7.44302 6.48659 6.00668 -139184 -184357 513.933 14037.9 18868.9 -14698 -7.416 
13900 2 4.84939 6.2285 6.48864 6.01341 -125027 -199292 -629.249 13889.4 17836.1 -9235.4 -7.41577 
13901 2 4.16124 4.9891 6.49335 6.01291 -143813 -179139 1445.09 -30.9624 18512.4 -17209.8 -7.41587 
13902 2 4.89306 3.7749 6.49445 6.01274 -137028 -187515 -1050.59 969.06 12414.4 -15253.7 -7.41553 
13903 2 4.2062 2.53478 6.49868 6.01946 -151381 -171399 1074.3 -12053.5 12526.3 -18457 -7.41565 
13904 2 4.93826 1.32063 6.49804 6.01296 -152651 -171297 -439.491 -7836.6 3770.19 -19923 -7.4155 
13905 2 4.2524 0.0799309 6.50075 6.01655 -161159 -162136 85.7551 -17288 2111.74 -18101.6 -7.41547 
14099 2 6.22544 8.70694 6.48041 6.0061 -126148 -195126 2672.85 9962.78 15012.8 -16909.1 -7.41646 
14100 2 6.95637 7.49229 6.48172 6.01549 -114377 -210022 -3010.93 11817.1 13796.9 -7190.73 -7.4158 
14101 2 6.26709 6.25357 6.48553 6.01151 -131663 -189861 3712.84 -4907.7 17364.3 -19891 -7.41638 
14102 2 6.99866 5.0392 6.48622 6.01168 -126076 -199278 -3048.82 -2299.82 10907.8 -14047.7 -7.41561 
14103 2 6.31068 3.79978 6.49031 6.01659 -140875 -180837 3223.21 -19579.6 15287.1 -21814.8 -7.41615 
14104 2 7.04255 2.58549 6.48986 6.00872 -142058 -182782 -1769.89 -14236.4 5089.94 -20178.9 -7.41563 
14105 2 6.35578 1.34538 6.49333 6.0149 -153779 -169045 1589.31 -29202.7 8467.86 -22046 -7.41586 
14106 2 7.08742 0.130868 6.49132 6.0092 -160935 -162787 464.472 -19560.6 -2282.97 -24199.5 -7.41583 
14300 2 9.06426 8.75459 6.47671 6.01729 -109333 -213648 -6329.89 10098.2 9450.26 -3397.88 -7.41574 
14301 2 8.37415 7.51637 6.47908 6.0111 -123709 -195234 6700.33 -8772.03 13997.2 -19635.8 -7.41693 
14302 2 9.10531 6.30173 6.47926 6.01246 -119385 -205111 -6170.96 -4763.16 7983.31 -9692.17 -7.4156 
14303 2 8.41635 5.0629 6.4824 6.01241 -132495 -187192 6024.41 -25074.8 15045.9 -21310.9 -7.41673 
14304 2 9.14789 3.84837 6.48202 6.00723 -133494 -191293 -4417.5 -18926.3 4392.84 -16044 -7.41565 
14305 2 8.46014 2.60886 6.48529 6.01083 -145288 -175972 3865.03 -38209.1 12081.7 -21789.1 -7.41638 
14306 2 9.19164 1.39422 6.48401 6.00512 -151336 -172904 -1331.86 -28184.1 -967.288 -21144.3 -7.4159 
14307 2 8.5049 0.154114 6.48659 6.01244 -160861 -162452 823.426 -44078.6 5679.34 -20604.3 -7.416 
1235 1 10.7807 8.40864 2.92772 6.00898 -196625 -124393 -9551.82 11378.1 6338.93 -5165.53 -7.41559 
1236 1 11.4676 7.16823 2.92691 6.00914 -199428 -115893 11176 6122.14 9187.23 -19359.2 -7.41754 
1237 1 10.7396 5.95152 2.92376 6.01173 -190946 -132381 -8197.32 29535.2 4447.74 -8796.41 -7.41555 
1238 1 11.4261 4.71107 2.92344 6.01204 -189757 -127454 8938.27 22424.6 10503.8 -20422.9 -7.41724 
1239 1 10.697 3.49493 2.92081 6.01576 -181366 -142731 -5279.53 45090.4 713.772 -12492.8 -7.4157 
1240 1 11.3835 2.25458 2.92151 6.00791 -176320 -143164 5129.44 34270.3 9159.85 -20555 -7.41678 
1241 1 10.6533 1.03901 2.91954 6.01293 -168140 -154869 -1284.84 53642.7 -4624.79 -15703.4 -7.41602 
1436 1 13.6126 8.36318 2.93153 6.01068 -194890 -118145 15142.5 3570.02 9302.58 -18050.5 -7.418 
1437 1 12.885 7.14626 2.92839 6.01432 -187521 -132239 -12241.5 28092.4 1380.93 -5112.57 -7.41546 
1438 1 13.5721 5.90613 2.92729 6.01231 -187805 -127008 12659.6 20763.9 11334.2 -17352.8 -7.41772 
1439 1 12.8435 4.68969 2.92513 6.01733 -181454 -140319 -8993.56 45315.3 -1138.34 -7374.58 -7.41561 
1440 1 13.5305 3.44958 2.92508 6.00823 -178504 -138337 8538.2 35304 11305 -16714.1 -7.41726 
1441 1 12.8009 2.23362 2.92381 6.01363 -172167 -149524 -4383.54 57617 -4856.73 -9912.4 -7.41595 
1442 1 13.4879 0.993652 2.92501 6.00492 -166703 -152065 3094.89 43469.8 8949.43 -15374.6 -7.41671 
1637 1 15.03 8.34161 2.93216 6.01655 -181098 -134085 -16581.5 25261.2 -94.3522 -4265.52 -7.41539 
1638 1 15.7179 7.10184 2.92996 6.0132 -184076 -129797 16580.2 17930.7 13210.7 -16898.8 -7.41813 
1639 1 14.9895 5.88523 2.92766 6.0185 -177142 -141071 -13163.1 42841.3 -2436.44 -4624.55 -7.41551 
1640 1 15.6771 4.6454 2.92668 6.00837 -177224 -137929 12258 33944.6 13752.3 -14688 -7.41769 
1641 1 14.9479 3.42921 2.92585 6.01434 -171930 -147626 -8157.68 57501.4 -5418.46 -5679.33 -7.41582 
1642 1 15.6353 2.18941 2.92648 6.00542 -169242 -147243 6507.73 45376.7 12126.6 -12768.8 -7.41712 
1643 1 14.9054 0.973574 2.92667 6.00804 -164718 -154066 -2120.46 65597.6 -8917.87 -7410.4 -7.4163 
1838 1 17.8634 8.29808 2.93266 6.01341 -181996 -132712 20732.2 16342.3 16134.8 -19812.2 -7.41851 
1839 1 17.1353 7.08131 2.92947 6.01958 -171477 -142914 -17665.7 40714.1 -2245.7 -5244.17 -7.41544 
1840 1 17.8235 5.8418 2.92738 6.00761 -175369 -139898 16125.5 32899.9 16954.1 -15797.1 -7.41807 
1841 1 17.0945 4.62545 2.92628 6.01416 -168271 -148005 -12435.8 56213.1 -5322.81 -4560.84 -7.41569 
1842 1 17.7823 3.38587 2.92623 6.00381 -169340 -146009 10204 46310.6 15655.9 -12577 -7.41751 
1843 1 17.0527 2.16984 2.92689 6.0081 -164742 -151854 -5911.35 67108.3 -8769.99 -4901.35 -7.41613 
1844 1 17.7404 0.930269 2.92886 6.0028 -162904 -152069 3265.54 53864.2 12285.5 -10007.3 -7.4169 
14501 2 10.4821 8.77795 6.47471 6.01069 -121312 -194849 10217.8 -10385.8 10154.2 -18701.7 -7.41743 
14502 2 11.2127 7.56296 6.4742 6.0148 -117737 -204038 -9974.82 -5212.98 5305.35 -4801.62 -7.41552 
14503 2 10.523 6.32451 6.47609 6.01065 -128647 -188120 9391.51 -27418.5 12965.7 -19111.6 -7.41729 
14504 2 11.2541 5.10966 6.47552 6.00894 -129290 -193681 -7978.37 -20799.4 2962.71 -10130.3 -7.41559 
14505 2 10.5655 3.87063 6.47812 6.00739 -139311 -179026 6843.32 -42964.5 13086.4 -18995.7 -7.41694 
14506 2 11.2967 2.65576 6.47735 6.00485 -144061 -179048 -4350.88 -33101.9 -901.691 -15190.5 -7.41586 
14507 2 10.6092 1.41616 6.47992 6.00805 -153326 -167599 3037.42 -52860.8 9931.69 -17931.2 -7.41648 
14508 2 11.3401 0.201048 6.47864 6.00431 -160408 -161272 352.755 -38192.9 -5483.18 -18878.5 -7.41629 
14702 2 13.3206 8.8234 6.47062 6.01703 -119753 -198388 -14176.7 -3784.73 4119.01 -1767.11 -7.41543 
14703 2 12.6305 7.58517 6.47139 6.01132 -129689 -184581 13176.3 -26952.4 10781.2 -17665.5 -7.41778 
14704 2 13.3609 6.36994 6.47022 6.01151 -129045 -190229 -12033.5 -19999.5 2092.25 -5195.51 -7.41549 
14705 2 12.6718 5.1312 6.47211 6.00673 -137878 -177351 10443.3 -43627.4 12687.2 -16138.5 -7.41747 
14706 2 13.4025 3.91603 6.47143 6.00707 -140389 -179739 -8139.92 -34369.8 -1020.14 -9154.57 -7.41574 
14707 2 12.7143 2.6768 6.47389 6.00515 -148627 -169033 6146.36 -56412.4 12094.1 -14430.7 -7.41699 
14708 2 13.445 1.46154 6.47346 6.0043 -153476 -166686 -2824.38 -43073 -5055.82 -12803 -7.41617 
14709 2 12.7576 0.221876 6.47564 6.00756 -160666 -159531 934.139 -61692.4 9041.43 -12353.9 -7.41644 
14903 2 14.7383 8.84528 6.46754 6.01328 -133800 -179296 17205.2 -25058 10031.6 -18667 -7.4182 
14904 2 15.4681 7.62964 6.46538 6.01381 -130533 -183763 -16345.6 -17875.3 2571.78 -3191.48 -7.41542 
14905 2 14.7786 6.39107 6.46672 6.00805 -140091 -172463 14493.1 -41923.5 12441.5 -15323.8 -7.41794 
14906 2 15.5088 5.17555 6.46565 6.00904 -139740 -175947 -12306.1 -33526.8 -428.619 -5333.4 -7.41562 
14907 2 14.8201 3.93654 6.4681 6.0047 -147555 -166531 9988.67 -56467.1 13287.7 -12298.1 -7.41747 
14908 2 15.5505 2.72105 6.46808 6.00561 -149708 -167165 -6714.87 -44982.3 -4348.59 -8015.15 -7.416 
14909 2 14.8626 1.48167 6.47082 6.00457 -156164 -160470 4201.21 -65144.2 11953.4 -9655.07 -7.41689 
14910 2 15.5929 0.26608 6.47128 6.00401 -159842 -157333 -130.089 -49370.7 -8636.69 -10614.2 -7.41653 
15104 2 17.5757 8.88886 6.46023 6.01442 -130666 -178408 -20854.9 -16360.5 4378.66 -4637.53 -7.41541 
15105 2 16.8858 7.65046 6.4612 6.00989 -143573 -167617 18815.4 -40239.6 13587.1 -17506.1 -7.41835 
15106 2 17.6154 6.43457 6.45935 6.0101 -139377 -170651 -16634.9 -32506.9 1233.97 -4875.75 -7.41556 
15107 2 16.9264 5.19571 6.46183 6.00551 -149238 -161963 14308.1 -55497.2 14783.7 -12942.3 -7.41792 
15108 2 17.6564 3.97994 6.46173 6.00617 -147672 -164290 -10916.3 -45990.6 -2838.98 -5997.6 -7.41586 
15109 2 16.9681 2.74072 6.46516 6.00332 -154906 -158123 8246.77 -66626.2 14329.7 -9172.6 -7.41734 
15110 2 17.6982 1.525 6.46636 6.0035 -155563 -158174 -4056.68 -53707.1 -7631.79 -7809.88 -7.41632 
15111 2 17.0104 0.285541 6.46963 6.00417 -160191 -154991 1245.22 -70885.7 12092.2 -6447.96 -7.4167 
2039 1 19.2808 8.27809 2.93195 6.01874 -168048 -142667 -22455.8 41235.1 -400.028 -8642.17 -7.41545 
2040 1 19.9695 7.03887 2.92877 6.0052 -176196 -140986 20344.7 34117.8 20723.9 -19937.4 -7.41846 
2041 1 19.2409 5.82232 2.9265 6.01298 -164504 -148893 -17084.7 56677.7 -3979.52 -6752.07 -7.41561 
2042 1 19.9292 4.58298 2.92561 6.00096 -169656 -146523 14089 48788.4 19766.8 -15305.9 -7.41788 
2043 1 19.1998 3.3668 2.92587 6.00682 -162541 -151764 -10272.7 69207.1 -7897.92 -5615.79 -7.41597 
2044 1 19.8877 2.12737 2.9276 5.99943 -164204 -150234 6969.94 58996.3 16440.4 -11708.2 -7.41726 
2045 1 19.1579 0.911405 2.92966 6.00269 -160781 -152588 -2546.44 76085 -11852.8 -5897.95 -7.41649 
2240 1 22.115 8.23709 2.93226 6.00225 -181640 -138138 25331.9 38957.2 24336 -25674.3 -7.41891 
2241 1 21.387 7.02016 2.92821 6.01066 -163986 -147253 -22018.5 60822.4 -1497.03 -11041.8 -7.41561 
2242 1 22.0756 5.78105 2.92646 5.997 -172989 -145612 18457.7 54423.7 24138.8 -20280.5 -7.41829 
2243 1 21.3466 4.56462 2.92528 6.00416 -160945 -151460 -15010.4 74129.7 -6005.01 -9098.86 -7.41587 
2244 1 22.0349 3.32537 2.92647 5.99457 -166421 -149457 10931.4 66573.4 21145.9 -15657 -7.41765 
2245 1 21.3052 2.10923 2.92805 5.99966 -159760 -152116 -6957.61 83230.8 -10782.4 -8163.03 -7.4163 
2246 1 21.9932 0.869891 2.93192 5.99445 -160821 -151213 3079.26 73129.1 15854.4 -12322 -7.41703 
2441 1 23.5324 8.21954 2.93261 6.0082 -168345 -140851 -27298 68811.5 1375.33 -15497.8 -7.41563 
2442 1 24.2214 6.98064 2.93024 5.99276 -180479 -140468 23695.2 63330.8 28046.2 -25915.8 -7.41878 
2443 1 23.4931 5.76375 2.92695 6.00085 -162736 -148296 -19995.7 82784 -3369.44 -13824.6 -7.41583 
2444 1 24.1816 4.5247 2.9274 5.98888 -171305 -146777 15448.5 77242.5 25980.7 -20932.4 -7.41808 
2445 1 23.4523 3.30827 2.92735 5.99546 -159973 -151055 -11729.4 93647.5 -8819.78 -12381.1 -7.41617 
2446 1 24.1405 2.06907 2.93085 5.98806 -163823 -149708 7125.32 86547.6 20943.6 -16866.3 -7.41742 
2447 1 23.4107 0.852887 2.93353 5.99247 -158694 -150613 -2845.52 99355.8 -14346.6 -12166.7 -7.41666 
2642 1 26.3663 8.18234 2.93739 5.98912 -191722 -130594 29868.3 74643.2 30806.6 -30517.1 -7.41937 
2643 1 25.6389 6.96477 2.93202 5.99782 -169079 -140958 -25278.3 94443.6 -682.747 -17983.8 -7.41581 
2644 1 26.3277 5.72591 2.93176 5.98334 -179801 -140148 20813.1 90452.5 30233.9 -26058.7 -7.4186 
2645 1 25.5991 4.50898 2.92936 5.99103 -163234 -147054 -16704.3 107206 -6307.42 -16976.7 -7.41609 
2646 1 26.2875 3.26996 2.93206 5.9807 -169718 -146063 11722.9 102441 26153.5 -21879.6 -7.41787 
2647 1 25.558 2.05345 2.93301 5.98659 -159660 -149181 -7617.25 115377 -12561.2 -16396.3 -7.4165 
2648 1 26.2461 0.814347 2.93828 5.97944 -160602 -149321 3002.47 108352 19356.8 -18734.7 -7.41723 
2843 1 27.7837 8.16816 2.94043 5.99575 -179406 -129844 -31010 107364 1368.3 -20403 -7.41576 
2844 1 28.4729 6.92949 2.93973 5.97884 -191059 -129780 26990.3 104522 33291.6 -29705.6 -7.41922 
2845 1 27.7451 5.71187 2.93503 5.98733 -170496 -139573 -21942.4 122258 -3813.95 -20429.3 -7.41602 
2846 1 28.4338 4.47304 2.93673 5.97393 -178312 -138988 17066.8 119449 30804.5 -26128.3 -7.41841 
2847 1 27.7049 3.25603 2.93525 5.98102 -163880 -145169 -12565.1 133351 -10222.7 -20246.4 -7.41637 
2848 1 28.3932 2.0171 2.93951 5.97184 -166613 -145369 7585.85 128952 24860.6 -22956.3 -7.41768 
2849 1 27.6636 0.800457 2.94119 5.97739 -158645 -147912 -3049.75 138630 -17025 -20588.1 -7.41686 
15305 2 18.9933 8.9092 6.45508 6.01053 -144996 -166398 23416.2 -40616.3 16496.7 -22173.5 -7.41875 
15306 2 19.7224 7.69296 6.45237 6.00817 -136703 -167800 -21149.4 -33233.3 3630.13 -7482.12 -7.41557 
15307 2 19.033 6.45431 6.45471 6.00594 -150697 -158600 18883.5 -55954.9 17441.4 -16514.7 -7.41833 
15308 2 19.7625 5.23824 6.45419 6.00478 -145121 -161006 -15233.8 -48025.8 -510.522 -7093.72 -7.41579 
15309 2 19.0739 3.99918 6.45808 6.00245 -155027 -154650 12748 -68545.3 17100.5 -11557.2 -7.41776 
15310 2 19.8038 2.78324 6.45957 6.00165 -152344 -156573 -8261.14 -58503.9 -5710.99 -7646.26 -7.41616 
15311 2 19.1157 1.54392 6.46409 6.00119 -158292 -153125 5384.86 -75843.7 15159.8 -7898.45 -7.41711 
15312 2 19.8458 0.328039 6.4666 5.99981 -158656 -153248 -661.375 -62486.3 -11381.8 -9185.61 -7.41667 
15506 2 21.8302 8.95025 6.44518 6.00288 -129682 -170353 -26100.6 -36794.5 5927.02 -11669.3 -7.41562 
15507 2 21.14 7.71198 6.44707 6.0046 -149335 -159618 23690.6 -59318.7 21289.5 -21921.2 -7.41876 
15508 2 21.8692 6.49562 6.44603 6.00018 -139859 -160975 -19769 -52534.9 2121.34 -10491.1 -7.4158 
15509 2 21.1801 5.25681 6.44983 6.00065 -154318 -153156 17452.8 -72940.1 20749.7 -16345.4 -7.41818 
15510 2 21.9097 4.04064 6.45123 5.99737 -148160 -155460 -12578.4 -65336.9 -3100.83 -9921.71 -7.41608 
15511 2 21.2213 2.80149 6.45647 5.99801 -157294 -150897 9947.12 -82595.1 18714.2 -11807.5 -7.41753 
15512 2 21.9513 1.58545 6.45954 5.99516 -154991 -152700 -4856.93 -72739.8 -9409.99 -10441.2 -7.4165 
15513 2 21.2633 0.346125 6.4649 5.99754 -158944 -151227 1591.22 -86318.4 15243.1 -8985.87 -7.41687 
15707 2 23.2478 8.96811 6.43979 6.00093 -143286 -166229 28900.5 -65666 25527.2 -27424.7 -7.41927 
15708 2 23.9767 7.7515 6.43843 5.99348 -130847 -166150 -24818.5 -59596.7 4295.72 -14658.5 -7.41582 
15709 2 23.2868 6.51314 6.44146 5.99705 -150462 -156033 22323.6 -80303.5 25058.4 -22167.7 -7.41865 
15710 2 24.0162 5.29673 6.44256 5.99091 -141123 -157605 -17156.8 -74452.8 -394.63 -13652.5 -7.41606 
15711 2 23.3273 4.05787 6.44761 5.99375 -154950 -150797 14678.5 -92031.5 22920.9 -17347.4 -7.41797 
15712 2 24.0571 2.84164 6.45078 5.98872 -149662 -153026 -9189.69 -85060.6 -6747.59 -13320.2 -7.4164 
15713 2 23.3688 1.6025 6.45696 5.99197 -157398 -149643 6147.29 -98905.1 19238.8 -13821 -7.41728 
15714 2 24.0987 0.386361 6.46082 5.98755 -156981 -150965 -1086.03 -89413.4 -14034.7 -14286.4 -7.41685 
15908 2 26.0853 9.00529 6.43259 5.98583 -118588 -176294 -30572.9 -68328.8 5472.44 -18125.9 -7.41581 
15909 2 25.3944 7.76759 6.43436 5.99155 -142549 -163836 27519.4 -89650.9 29231.8 -27409.2 -7.4192 
15910 2 26.1235 6.55095 6.43517 5.98318 -131054 -164396 -22271.5 -85150.1 1751.41 -17489.4 -7.41604 
15911 2 25.4338 5.31259 6.43912 5.988 -149440 -154758 19546.6 -103564 27409.9 -23115.7 -7.41846 
15912 2 26.1634 4.09614 6.44205 5.98081 -141925 -156502 -13808.7 -98925.3 -3991.2 -16887.9 -7.41634 
15913 2 25.4746 2.85733 6.44788 5.98546 -154029 -150422 10878.6 -113445 23746.7 -19431.6 -7.41773 
15914 2 26.2045 1.64102 6.45192 5.97934 -151648 -152019 -5424.08 -107150 -11417.8 -17102 -7.41673 
15915 2 25.5162 0.401962 6.45836 5.9848 -157106 -149368 1704.37 -117616 18616.6 -17094.6 -7.41705 
16109 2 27.5031 9.01969 6.42961 5.9847 -131326 -175609 33195.1 -99726.3 32398.7 -30946.9 -7.41982 
16110 2 28.232 7.80283 6.43033 5.97527 -118978 -175204 -28042.1 -96372.6 2932.08 -20304 -7.41598 
16111 2 27.5412 6.56514 6.43259 5.98098 -140798 -162897 24700.4 -115896 31460 -27754.8 -7.41903 
16112 2 28.2706 5.34847 6.43513 5.97248 -132090 -163910 -18936.9 -113206 -1719.62 -20059 -7.41627 
16113 2 27.581 4.11017 6.43958 5.97796 -148097 -154657 15750.3 -129069 28310 -24557 -7.41823 
16114 2 28.3108 2.89365 6.44338 5.97055 -144194 -156039 -10061 -125511 -8582.58 -19987.3 -7.41663 
16115 2 27.622 1.65493 6.44931 5.97652 -153834 -150295 6453.14 -137136 23303.8 -22012.1 -7.41749 
16116 2 28.3519 0.438447 6.45292 5.97017 -155491 -150424 -1347.36 -131094 -16833.5 -20829.8 -7.41709 
3044 1 30.6168 8.13572 2.95046 5.97584 -203214 -116850 33665.2 117881 34898.2 -31269.4 -7.41988 
3045 1 29.8902 6.91727 2.94408 5.98492 -180627 -129118 -27603.4 137001 -1841.22 -21979.5 -7.41593 
3046 1 30.5792 5.67866 2.94488 5.96862 -188798 -128796 23079.9 135818 34327.4 -28669.9 -7.41901 
3047 1 29.8512 4.46097 2.94099 5.97664 -171067 -138222 -17760.4 151385 -7779.93 -22594.2 -7.41625 
3048 1 30.5398 3.22225 2.94392 5.96469 -175052 -138591 12784.7 149123 29912.8 -26026.6 -7.41819 
3049 1 29.8107 2.00512 2.9432 5.97082 -162935 -144212 -7978.46 160182 -14771.1 -23167.5 -7.41669 
3050 1 30.4992 0.76639 2.94791 5.96216 -161624 -146438 3154.17 155282 22512.3 -23860 -7.41749 
3245 1 32.0341 8.12532 2.9554 5.98382 -191842 -117178 -33719.9 149777 -629.205 -21734.2 -7.41579 
3246 1 32.7235 6.88697 2.95557 5.96512 -199988 -116980 29496.9 149876 36460.6 -29247.2 -7.41965 
3247 1 31.9966 5.66848 2.94986 5.97387 -180448 -128979 -23346.4 167355 -5619.74 -23086.6 -7.41611 
3248 1 32.6855 4.43001 2.95143 5.95875 -184790 -129191 18526.4 167024 33977.2 -27383.9 -7.41876 
3249 1 31.9572 3.21223 2.94834 5.96587 -169977 -138110 -13139.7 180216 -12210 -24148.1 -7.41652 
3250 1 32.6459 1.97373 2.95147 5.95598 -169844 -140073 8151.57 177672 27874.8 -25602.5 -7.41795 
3251 1 31.9166 0.756463 2.95127 5.96069 -160070 -145176 -3197.16 185868 -19537.4 -25233.4 -7.41704 
3446 1 34.8666 8.0979 2.96749 5.96343 -210312 -105097 36041.5 160657 37249.6 -28224.7 -7.4203 
3447 1 34.1408 6.87858 2.96077 5.97273 -190607 -118845 -29347.4 179945 -3980.53 -22050.3 -7.41595 
3448 1 34.8303 5.64039 2.96121 5.95494 -194817 -118763 24621.9 181220 36770.8 -27051.8 -7.41936 
3449 1 34.1029 4.42188 2.95623 5.96287 -178515 -130322 -18637.4 196782 -9675.07 -23517.2 -7.41633 
3450 1 34.792 3.18363 2.95774 5.94977 -179087 -131616 13599.3 196437 32437.3 -25828.4 -7.41847 
3451 1 34.0633 1.96578 2.95528 5.95541 -166778 -139625 -8316.82 206946 -16764.4 -24816.1 -7.41682 
3452 1 34.7524 0.72759 2.95772 5.94735 -163187 -143690 3254.59 203199 25055.7 -24743.3 -7.41769 
3647 1 36.2839 8.09111 2.97243 5.97282 -199960 -108908 -35628.7 188469 -2947.16 -20098.8 -7.41575 
3648 1 36.9739 6.85323 2.97209 5.95308 -204146 -108476 30876.3 191035 38270.9 -25488.6 -7.41997 
3649 1 36.2475 5.63397 2.96594 5.96168 -187423 -121775 -24483.1 208717 -7446.79 -21733.8 -7.41613 
3650 1 36.9371 4.396 2.96603 5.94571 -188305 -122216 19371.8 210337 35908.6 -24743.1 -7.41902 
3651 1 36.2093 3.17749 2.96171 5.95231 -174782 -132945 -13703.3 223578 -13810 -23170.3 -7.41659 
3652 1 36.8987 1.93954 2.9625 5.94209 -172082 -135858 8460.07 222291 29971.6 -24029.4 -7.41814 
3653 1 36.1698 0.721614 2.96045 5.94579 -162025 -142651 -3355.23 229856 -21221.6 -24518.2 -7.41717 
16310 2 30.3418 9.05206 6.42845 5.96834 -105972 -188056 -34317.7 -106801 3115.97 -21568.8 -7.41584 
16311 2 29.6497 7.81517 6.42898 5.97345 -129915 -173734 30283.5 -127522 34403.8 -30502.7 -7.41966 
16312 2 30.3789 6.59827 6.43116 5.96491 -120815 -174170 -24635.7 -126430 -282.795 -22037.5 -7.41616 
16313 2 29.6882 5.36063 6.43366 5.96997 -139719 -161990 20885.5 -144030 32310.7 -28188.6 -7.4188 
16314 2 30.4179 4.14388 6.43696 5.96227 -134871 -163009 -15152.1 -142765 -6057.88 -22158.6 -7.41651 
16315 2 29.7284 2.90567 6.44136 5.96785 -148132 -154014 11344.9 -156166 27926.5 -25935.8 -7.41798 
16316 2 30.4582 1.68898 6.44478 5.96113 -148340 -154089 -6002.09 -152956 -13916.4 -22587.3 -7.41694 
16317 2 29.7695 0.450405 6.45007 5.96795 -155558 -148651 1719.15 -161867 21812.6 -24202 -7.41726 
16511 2 31.7596 9.06255 6.42832 5.96631 -117986 -185566 36276.7 -137245 35925.6 -31317.9 -7.42031 
16512 2 32.4885 7.84538 6.43028 5.95877 -109131 -185531 -30753.4 -137488 278.13 -22547.5 -7.41598 
16513 2 31.7966 6.60851 6.43088 5.96226 -129789 -171298 26405.7 -156643 35237.7 -29926.8 -7.41943 
16514 2 32.526 5.39151 6.43361 5.95525 -124636 -172039 -20709.6 -157409 -4163.93 -23132.4 -7.41634 
16515 2 31.8355 4.15393 6.436 5.95939 -140488 -160145 16474.2 -172846 31973.5 -28247.9 -7.41853 
16516 2 32.5652 2.93701 6.43894 5.95318 -139976 -160433 -11041 -172357 -11066.6 -23529.5 -7.41676 
16517 2 31.8758 1.69892 6.4427 5.95864 -150410 -151940 6623.8 -183228 26475 -26599.3 -7.41772 
16518 2 32.6055 0.481933 6.4447 5.95322 -154971 -150121 -1577.68 -179539 -19564.8 -24266.1 -7.41729 
16712 2 34.5995 9.08989 6.43189 5.95438 -98270.4 -196425 -37049.9 -145682 129.387 -21755.8 -7.41575 
16713 2 33.9063 7.8538 6.43103 5.95555 -119466 -181084 32299.8 -166039 36859.9 -29953.4 -7.42007 
16714 2 34.6353 6.63652 6.43326 5.95005 -114709 -181779 -26607.4 -168540 -3007.34 -22839 -7.41613 
16715 2 33.9437 5.39965 6.43375 5.95186 -131792 -167722 21943.4 -185955 35047.2 -28866 -7.41913 
16716 2 34.6732 4.18248 6.4361 5.94691 -130965 -168203 -16439.4 -187777 -8617.2 -23442.5 -7.41655 
16717 2 33.9828 2.94497 6.43796 5.9501 -143693 -156833 11743 -201008 30610.2 -27517.7 -7.41823 
16718 2 34.7125 1.72777 6.43966 5.94576 -147037 -155602 -6606.41 -200154 -16437.6 -23967 -7.41705 
16719 2 34.023 0.489822 6.44228 5.95112 -155286 -147981 1720.75 -208412 24160 -26128.1 -7.41745 
16913 2 36.0174 9.09667 6.43327 5.95036 -109789 -190023 38418 -171965 37247.9 -28754.2 -7.4207 
16914 2 36.7459 7.87908 6.43518 5.94683 -105358 -190679 -32674.3 -175772 -2526.91 -21520.3 -7.41589 
16915 2 36.0531 6.64293 6.43423 5.94582 -123167 -175377 27745.6 -194759 36974.5 -28120.9 -7.41974 
16916 2 36.7822 5.42547 6.436 5.94265 -122039 -176189 -22098.5 -198561 -6746.6 -22400.1 -7.41631 
16917 2 36.0909 4.1886 6.43614 5.94295 -136212 -162745 17156.8 -213953 33936.6 -27101.2 -7.41878 
16918 2 36.8203 2.97117 6.43739 5.94024 -138846 -162391 -11884 -215819 -13462.5 -22938.9 -7.41679 
16919 2 36.13 1.73375 6.43838 5.9427 -149124 -152235 6829.07 -226453 28374.5 -25846.2 -7.41791 
16920 2 36.8594 0.516177 6.43834 5.94037 -155631 -149087 -1843.55 -224234 -21812.5 -23426.1 -7.41739 
3848 1 39.1164 8.0683 2.98297 5.95283 -211883 -99199.1 37132.3 196603 38623.7 -23262.1 -7.42056 
3849 1 38.3911 6.84829 2.97636 5.96191 -195680 -113522 -30572.7 216033 -5714.12 -19373.5 -7.41591 
3850 1 39.0812 5.61064 2.97536 5.94373 -196686 -113199 25337.9 219266 38188.2 -22803.4 -7.41958 
3851 1 38.3544 4.39144 2.9698 5.95114 -182832 -125708 -19356.6 234896 -10990.1 -20787.3 -7.41635 
3852 1 39.0442 3.15376 2.96912 5.93789 -180956 -127282 13965.9 235926 34017.1 -22405.8 -7.41862 
3853 1 38.3161 1.93525 2.96533 5.94266 -169552 -136517 -8620.52 246255 -17947.8 -22102.3 -7.41688 
3854 1 39.0059 0.69766 2.96508 5.93558 -164636 -141222 3224.67 243349 26851.8 -22052.8 -7.41777 
4048 1 41.2577 9.28532 2.99299 5.95392 -217878 -91722.3 43268.8 198311 38056.8 -20828.7 -7.42113 
4049 1 40.5336 8.06459 2.98648 5.9632 -202407 -106202 -36745.5 218873 -4555.1 -16889.4 -7.41569 
4050 1 41.2243 6.82728 2.98478 5.94344 -203834 -105282 31383.3 223346 39326.9 -20481.8 -7.42014 
4051 1 40.4985 5.60741 2.97861 5.95151 -190108 -118909 -25207.4 241019 -8563.85 -18153.8 -7.41611 
4052 1 41.1888 4.37002 2.97676 5.93576 -188961 -119046 19681.6 244107 37033.3 -20265.8 -7.41913 
4053 1 40.4615 3.15091 2.97175 5.94154 -177282 -130280 -14075.4 257219 -14651.4 -19328.2 -7.4166 
4054 1 41.1516 1.91354 2.97018 5.93185 -173334 -133177 8546.59 256944 31279.6 -20124.6 -7.4182 
4055 1 40.4233 0.695014 2.9668 5.93443 -163822 -140617 -3393.48 264077 -22043.2 -20502 -7.41723 
4249 1 42.6749 9.2826 2.99558 5.96357 -207329 -100082 -42846.7 217880 -3948.75 -14545.3 -7.41548 
4250 1 43.3664 8.04564 2.99352 5.94461 -209161 -98757.9 37399.3 223235 39473 -18117.8 -7.42068 
4251 1 42.6416 6.82513 2.98728 5.95304 -196133 -112870 -31155.5 242437 -6694.97 -15602.1 -7.41588 
4252 1 43.3325 5.58805 2.98463 5.93544 -195581 -111965 25519.2 247094 38985.9 -17959.7 -7.41966 
4253 1 42.6061 4.36834 2.97893 5.94207 -184148 -124481 -19683.9 262579 -11630.9 -16570.7 -7.41633 
4254 1 43.2966 3.13122 2.97629 5.92959 -181224 -125500 14062.7 264728 34904.5 -17940.6 -7.41866 
4255 1 42.569 1.91217 2.97179 5.93335 -171261 -134786 -8689.59 274763 -18466.9 -17547 -7.4169 
4256 1 43.2595 0.675141 2.96948 5.92734 -166055 -139186 3189.64 272605 27926.3 -17949.9 -7.41778 
4450 1 45.5074 9.26543 3.00105 5.94671 -212874 -93751 43292.2 219915 38816.1 -15893.2 -7.4212 
4451 1 44.7836 8.04433 2.99512 5.95541 -200358 -107735 -37092 239944 -5433.21 -13298.8 -7.41566 
4452 1 45.4752 6.80758 2.99201 5.93647 -200680 -106076 31392 245843 39928.6 -15716.2 -7.42018 
4453 1 44.7497 5.58729 2.98613 5.94373 -189567 -119322 -25391.8 263095 -9109.09 -14049.9 -7.41609 
4454 1 45.4408 4.35045 2.98272 5.92893 -187708 -118781 19710.8 267315 37610.7 -15732.9 -7.41915 
4455 1 44.7139 3.13087 2.97754 5.9339 -177949 -129621 -14094.4 280013 -15016.5 -14794.9 -7.4166 
4456 1 45.4048 1.89403 2.97436 5.92522 -173890 -131788 8562.68 280654 31960.1 -15841.7 -7.41819 
4457 1 44.6769 0.675005 2.97036 5.92683 -165438 -138966 -3231.2 287316 -22396.7 -15650.2 -7.41725 
4651 1 46.9246 9.26476 3.00172 5.95742 -203009 -103626 -42915.5 234493 -4731.76 -11293.2 -7.41546 
4653 1 46.8924 6.80752 2.99272 5.94628 -193495 -114906 -31135.7 259850 -7196.32 -11852.5 -7.41586 
4655 1 46.8581 4.35088 2.98343 5.93554 -183284 -125063 -19590.5 280588 -11946.4 -12379.6 -7.41632 