ITEM: TIMESTEP
0
ITEM: NUMBER OF ATOMS
26936
ITEM: BOX BOUNDS pp pp pp
0.0000000000000000e+00 1.4251150300000000e+02
0.0000000000000000e+00 2.4683716400000000e+02
0.0000000000000000e+00 1.5000000000000000e+01
ITEM: ATOMS id type x y z c_csym c_2[1] c_2[2] c_2[3] c_2[4] c_2[5] c_2[6] c_3 
229 1 0.783 8.59 3 6.02406 -142237 -131227 -117103 10626.9 31682.2 -2752.88 -7.41318 
230 1 0.063 7.368 3 6.01988 -148939 -123935 -118332 838.616 30862.6 -478.878 -7.41324 
231 1 0.762 6.134 3 6.02366 -132141 -116357 -120769 -2239.66 25017.3 -3005.21 -7.41292 
232 1 0.042 4.912 3 6.02516 -148836 -125083 -122244 3924.05 21832.8 -257.165 -7.41278 
233 1 0.741 3.678 3 6.0239 -130013 -118162 -123519 2808.37 16160.5 -3215.92 -7.41276 
234 1 0.021 2.456 3 6.02705 -146705 -122660 -124614 4971.48 11324.6 -70.2557 -7.41311 
235 1 0.72 1.222 3 6.02411 -175803 -115997 -125163 3789.32 5681.06 -3280.22 -7.41338 
236 1 0 0 3 6.02774 -156226 -128800 -125396 13426 22.8899 80.4139 -7.41325 
431 1 2.201 8.577 3 6.02248 -139332 -155537 -115462 1765.71 34389.6 -8060.17 -7.4138 
432 1 2.899 7.343 3 6.02341 -148324 -144485 -118043 -2034.57 28045.4 -12049.9 -7.41387 
433 1 2.18 6.121 3 6.02248 -136259 -156682 -120006 99.3889 26354.8 -8746.25 -7.41364 
434 1 2.878 4.887 3 6.02366 -155722 -178463 -121551 -17859.1 20304.1 -12636.9 -7.41378 
435 1 2.159 3.666 3 6.01953 -138094 -155965 -123209 -32904.7 16579.7 -9166.59 -7.41324 
436 1 2.857 2.431 3 6.01835 -137769 -133964 -123610 -23925.9 10721 -12915 -7.41284 
437 1 2.137 1.21 3 6.02214 -181724 -146408 -124937 -16144.4 5510.02 -9436.6 -7.41336 
632 1 5.037 8.553 3 6.02603 -134355 -116297 -113888 1071.81 29834.1 -19653.6 -7.4133 
633 1 4.317 7.331 3 6.02603 -122600 -127422 -116606 7762.32 29595.8 -15588 -7.41314 
634 1 5.016 6.097 3 6.0241 -131983 -116020 -117471 1220.4 23693.9 -21070.3 -7.41332 
635 1 4.296 4.875 3 6.02691 -132416 -138641 -120256 21074.3 20770.7 -16909.8 -7.41325 
636 1 4.994 3.641 3 6.02246 -144413 -149638 -120287 425.309 15276.8 -21817 -7.41353 
637 1 4.275 2.419 3 6.02329 -140925 -153401 -122443 8349.71 10357.2 -18162.2 -7.41331 
638 1 4.973 1.185 3 6.02446 -150370 -176954 -122093 -16327.6 5607.97 -21912.3 -7.41371 
833 1 6.455 8.541 3 6.02341 -137449 -156585 -112682 5572.08 31269.5 -20662.6 -7.41416 
834 1 7.153 7.307 3 6.02248 -150185 -145418 -112509 -4353.67 25705.3 -27652.2 -7.41396 
835 1 6.434 6.085 3 6.0222 -139654 -157333 -116536 7553.84 23750.8 -23009.9 -7.41349 
836 1 7.132 4.851 3 6.02475 -140213 -133083 -115637 12704.9 18999.8 -29039.4 -7.41338 
837 1 6.412 3.629 3 6.0241 -124257 -123310 -119086 9500.8 14410.6 -24836.2 -7.41322 
838 1 7.111 2.395 3 6.02498 -127904 -120593 -117913 -1188.44 10553.1 -29571.9 -7.41321 
839 1 6.391 1.173 3 6.02538 -123859 -117177 -120172 5367.26 4261.56 -26056.7 -7.41306 
1034 1 9.291 8.516 3 6.0241 -182731 -114881 -106154 -3998.85 26432 -32521.1 -7.4143 
1035 1 8.571 7.294 3 6.02279 -131025 -143476 -112220 18653 25278.6 -26823 -7.41345 
1036 1 9.269 6.06 3 6.02197 -154565 -182500 -110134 -22772.7 21200.9 -34388.6 -7.41441 
1037 1 8.55 4.839 3 6.02097 -140126 -155872 -115232 -26235.1 17463.1 -29505 -7.41368 
1038 1 9.248 3.604 3 6.02097 -143691 -151224 -113052 -40992.2 14216.2 -35394.5 -7.41402 
1039 1 8.529 2.383 3 6.02341 -147926 -185398 -116799 -11122.6 8288.13 -31376 -7.41428 
1040 1 9.227 1.149 3 6.02168 -141744 -147317 -115025 -3439.03 5884.97 -35404 -7.41369 
13499 2 0.635 8.602 6.4 6.02649 -133680 -141889 -115775 -1221.41 34587.2 -1847.18 -7.41314 
13500 2 0.656 6.146 6.4 6.02745 -130379 -140117 -120393 -4718.4 26539.5 -2398.67 -7.41335 
13501 2 0.677 3.69 6.4 6.02826 -129083 -138747 -123594 -2971.29 16723.1 -2819.68 -7.41338 
13502 2 0.698 1.234 6.4 6.02665 -135516 -144754 -125126 -10411.1 5806.93 -3161.34 -7.41323 
13503 2 0 0 6.4 6.02886 -158374 -129802 -125443 -17248.2 -30.7459 88.7901 -7.41288 
13697 2 2.053 8.614 6.4 6.02795 -151921 -142990 -116598 -4243.92 31811.5 -9117.53 -7.41374 
13698 2 2.772 7.392 6.4 6.0234 -136813 -156891 -117546 -996.651 30003.1 -10018 -7.41381 
13699 2 2.074 6.158 6.4 6.02794 -139831 -130498 -120262 -17472 25153.2 -9470.55 -7.41334 
13700 2 2.794 4.936 6.4 6.0239 -171612 -122281 -121257 -1715.68 21076.3 -11324.5 -7.41346 
13701 2 2.095 3.702 6.4 6.02722 -129341 -119284 -122932 -4234.62 16293.6 -9502.16 -7.41276 
13702 2 2.815 2.48 6.4 6.02364 -124218 -123546 -123596 3979.84 10758.1 -12263.3 -7.41276 
13703 2 2.116 1.246 6.4 6.02504 -124963 -122981 -124311 -2223.4 5658.81 -9522.66 -7.41271 
13704 2 2.836 0.024 6.4 6.02172 -131044 -151211 -124565 -11450.3 -140.758 -12667.5 -7.41291 
13898 2 4.889 8.638 6.4 6.02367 -120407 -129072 -113847 5529.17 32019 -15902.2 -7.41339 
13899 2 4.19 7.404 6.4 6.02354 -140907 -149367 -116734 15169.6 28381.4 -17763.4 -7.41346 
13900 2 4.91 6.183 6.4 6.02179 -122459 -127983 -117978 37922 24458.1 -18292.9 -7.41294 
13901 2 4.211 4.948 6.4 6.02021 -178180 -116866 -120049 31389.2 20630.9 -18505.2 -7.41341 
13902 2 4.931 3.727 6.4 6.0231 -141758 -170498 -120921 8761.45 14978.1 -20239.5 -7.41341 
13903 2 4.233 2.493 6.4 6.0197 -141627 -152539 -122168 -1264.14 11074.6 -18936.2 -7.4133 
13904 2 4.952 1.271 6.4 6.02364 -143090 -150321 -122012 2513.1 4838.6 -21391.1 -7.41344 
13905 2 4.254 0.037 6.4 6.02208 -139355 -143739 -123137 -4426.92 487.157 -18605.6 -7.41369 
14099 2 6.307 8.651 6.4 6.01969 -149243 -146448 -111787 -1298.09 30258 -24572.7 -7.414 
14100 2 7.026 7.429 6.4 6.02508 -141405 -156185 -113949 2926.82 26213.4 -23282.4 -7.41363 
14101 2 6.328 6.195 6.4 6.02302 -147186 -146298 -115437 -6412.85 24151.8 -25778.6 -7.41402 
14102 2 7.047 4.973 6.4 6.0258 -138394 -154573 -117234 2609.67 18331.2 -26022.3 -7.41392 
14103 2 6.349 3.739 6.4 6.02549 -146394 -147107 -118469 -8847.57 15781.3 -26503 -7.41377 
14104 2 7.068 2.517 6.4 6.02463 -139570 -154750 -119027 1920.82 9171.29 -28064.9 -7.41361 
14105 2 6.37 1.283 6.4 6.02795 -137281 -134726 -120085 -21962.9 6090.67 -26572.6 -7.41317 
14106 2 7.09 0.061 6.4 6.02412 -124635 -114866 -119168 4369.78 -833.075 -29305.6 -7.41333 
14300 2 9.142 8.675 6.4 6.02463 -136947 -159380 -109408 4194.24 26591.5 -26050.5 -7.41413 
14301 2 8.444 7.441 6.4 6.02795 -143631 -131150 -109748 -20834.4 26342.9 -31300.1 -7.41372 
14302 2 9.164 6.219 6.4 6.02387 -170389 -124394 -112749 3319.09 19843.3 -29809.1 -7.41406 
14303 2 8.465 4.985 6.4 6.02531 -133170 -119883 -112994 -7963.39 19695.2 -32403.2 -7.4131 
14304 2 9.185 3.763 6.4 6.02364 -123560 -126374 -114653 9007.97 11853.3 -32676.6 -7.41325 
14305 2 8.486 2.529 6.4 6.0241 -128895 -119721 -115270 -6065.32 11284.3 -32835.3 -7.41342 
14306 2 9.206 1.307 6.4 6.02376 -133438 -140252 -115578 -5286.42 3056.05 -34519.6 -7.41329 
14307 2 8.508 0.073 6.4 6.02288 -146689 -182699 -116742 8350.86 1635.48 -32550.5 -7.41391 
1235 1 10.708 8.504 3 6.0241 -170489 -126108 -107867 13626.8 25384.7 -28239.8 -7.41421 
1236 1 11.407 7.27 3 6.02603 -133665 -119509 -103328 -1459.44 22461.7 -37576.1 -7.41389 
1237 1 10.687 6.048 3 6.02413 -122461 -127648 -110579 12383.4 18799.4 -31634.1 -7.4136 
1238 1 11.386 4.814 3 6.0241 -130738 -121788 -106440 -3067.69 17121.8 -39210.5 -7.41371 
1239 1 10.666 3.592 3 6.02392 -124858 -126008 -112096 12774.4 10705.7 -34515.5 -7.4134 
1240 1 11.365 2.358 3 6.02411 -178606 -120200 -109184 -4641.36 10184.4 -39792.5 -7.41391 
1241 1 10.645 1.136 3 6.02385 -133198 -134366 -112463 15868.1 1964.03 -36364.6 -7.41342 
1436 1 13.544 8.48 3 6.02248 -149048 -148356 -96201.6 -9236.84 22395.9 -38681.7 -7.41508 
1437 1 12.825 7.258 3 6.02341 -137759 -157061 -106253 9902.25 18835.9 -31545 -7.41452 
1438 1 13.523 6.024 3 6.02248 -149017 -149451 -99794.8 -8057.98 18649.8 -40644.8 -7.41467 
1439 1 12.804 4.802 3 6.0222 -140322 -158269 -107799 11755.8 12295.5 -34971.5 -7.41398 
1440 1 13.502 3.568 3 6.02335 -139180 -136024 -102701 7963.16 13328.8 -41769.4 -7.41422 
1441 1 12.782 2.346 3 6.02409 -173689 -122886 -108237 13870.8 4641.18 -37635 -7.41421 
1442 1 13.481 1.112 3 6.02592 -126843 -118748 -105168 -953.629 6685.63 -41702.3 -7.41377 
1637 1 14.962 8.467 3 6.02367 -121666 -129711 -102110 9706.43 17569.2 -29364.8 -7.41395 
1638 1 15.661 7.233 3 6.0241 -133289 -120249 -92256 -7963.11 19207.6 -40298 -7.4147 
1639 1 14.941 6.011 3 6.02336 -130867 -144674 -103506 23359.2 12387.6 -33318 -7.41394 
1640 1 15.639 4.777 3 6.02197 -152024 -188877 -95908.4 -26715.1 15295.2 -41608.2 -7.41507 
1641 1 14.92 3.556 3 6.02341 -148097 -190453 -104038 -5545.84 6151.32 -36523.1 -7.41462 
1642 1 15.618 2.322 3 6.02248 -142092 -155247 -99119 -11545.6 10160.9 -41957.8 -7.41481 
1643 1 14.899 1.1 3 6.02364 -141756 -149067 -103354 8545.57 -983.424 -38780.6 -7.41442 
1838 1 17.798 8.443 3 6.02795 -151622 -149862 -84983.7 -4174.47 19003 -38276.4 -7.41548 
1839 1 17.079 7.221 3 6.02463 -137458 -159286 -100113 15804.9 11374.1 -29726.8 -7.41464 
1840 1 17.777 5.987 3 6.02795 -141548 -137273 -88477.1 7697.58 16501 -39839 -7.41488 
1841 1 17.057 4.765 3 6.02387 -123218 -126225 -100202 15799.3 6159.66 -33380.8 -7.41439 
1842 1 17.756 3.531 3 6.0241 -131341 -125717 -92056 -8384.6 12852 -40401.3 -7.41426 
1843 1 17.036 2.309 3 6.02336 -124315 -129027 -99134.9 10889.4 282.036 -36192.9 -7.41401 
1844 1 17.735 1.075 3 6.02256 -182358 -150122 -94965.4 -24220.8 8090.76 -40004.2 -7.41522 
14501 2 10.56 8.687 6.4 6.0241 -134748 -118479 -103177 -5381.85 27101.4 -34636.8 -7.41389 
14502 2 11.28 7.465 6.4 6.0231 -120959 -131082 -108373 9682.55 20263.5 -31012.7 -7.41349 
14503 2 10.581 6.231 6.4 6.02212 -186771 -152027 -106855 10885.8 22072.3 -36355 -7.41447 
14504 2 11.301 5.01 6.4 6.0231 -139664 -175829 -110382 13818.8 13590.9 -34831.2 -7.41388 
14505 2 10.603 3.776 6.4 6.0197 -143107 -154178 -109678 -4982.86 15131.2 -37364.2 -7.414 
14506 2 11.322 2.554 6.4 6.02364 -142163 -153928 -111093 7147.69 5976.51 -37579.4 -7.41404 
14507 2 10.624 1.32 6.4 6.02248 -145057 -150498 -111665 -6850.4 6898.21 -37360.7 -7.41403 
14508 2 11.343 0.098 6.4 6.02221 -141947 -149425 -110680 9240.62 -2274.48 -39272.2 -7.4138 
14702 2 13.396 8.712 6.4 6.02364 -139137 -157623 -104076 9107.04 19181.8 -30026 -7.41442 
14703 2 12.698 7.478 6.4 6.02248 -148327 -148358 -99701 -4591.53 23387.5 -38085.4 -7.41488 
14704 2 13.417 6.256 6.4 6.02364 -139367 -157566 -105998 8803.09 13936.5 -34411.4 -7.41429 
14705 2 12.719 5.022 6.4 6.02302 -147975 -149167 -103085 -12259.3 18094.7 -39361.2 -7.41461 
14706 2 13.438 3.8 6.4 6.02463 -138919 -157787 -107044 6251.54 7580.14 -37945.5 -7.41427 
14707 2 12.74 2.566 6.4 6.02795 -138552 -137033 -105766 -25547.1 11174.4 -39759.3 -7.41393 
14708 2 13.46 1.344 6.4 6.0241 -125901 -124175 -106569 5327.57 388.811 -40436.1 -7.41394 
14709 2 12.761 0.11 6.4 6.02411 -127338 -119814 -107462 -13846.2 3425.14 -39259.1 -7.4134 
14903 2 14.814 8.724 6.4 6.02795 -144340 -134046 -92308.1 -24977.6 23424.1 -37927.6 -7.41468 
14904 2 15.534 7.502 6.4 6.0241 -121446 -127538 -102008 7446.37 13095.1 -31978.1 -7.4143 
14905 2 14.835 6.268 6.4 6.02531 -132486 -122203 -95772.4 -11904.6 19782 -39557.1 -7.4143 
14906 2 15.555 5.046 6.4 6.02392 -123197 -128928 -102673 7790.84 7827.68 -36104.6 -7.41392 
14907 2 14.856 3.812 6.4 6.0241 -131956 -122272 -99154 -11186.8 14609.2 -40229.5 -7.41408 
14908 2 15.576 2.59 6.4 6.02336 -133945 -141137 -102499 -1270.49 2000.72 -39216.4 -7.41411 
14909 2 14.878 1.356 6.4 6.02221 -141891 -157086 -101747 -9327.52 7986.38 -40016.3 -7.41446 
14910 2 15.597 0.134 6.4 6.023 -148242 -184177 -101218 -3665.98 -4201.76 -41139.9 -7.41476 
15104 2 17.65 8.748 6.4 6.02336 -129073 -146011 -98808.7 -34.74 11451.6 -27862.4 -7.41419 
15105 2 16.952 7.514 6.4 6.02197 -156370 -184945 -88547 8507.01 20396.1 -37909 -7.41559 
15106 2 17.671 6.293 6.4 6.02097 -138996 -158692 -99164.2 45436.6 7374.82 -32230.3 -7.41456 
15107 2 16.973 5.058 6.4 6.02097 -145612 -153486 -92159.3 25570.5 16586.6 -38885.6 -7.41516 
15108 2 17.692 3.837 6.4 6.02341 -146675 -189402 -98548.9 29570.7 2574.53 -35853.3 -7.41525 
15109 2 16.994 2.603 6.4 6.02248 -144820 -155096 -95083.1 -10011.9 11642.3 -38973.1 -7.4148 
15110 2 17.713 1.381 6.4 6.02197 -140930 -157111 -97240.8 11429.7 -2685.8 -38466 -7.41482 
15111 2 17.015 0.147 6.4 6.02198 -135220 -132991 -97689.6 -25159.8 5824.08 -38032.7 -7.41449 
2039 1 19.216 8.431 3 6.02364 -131992 -142188 -97063.6 25476.8 9546.69 -24998.5 -7.41441 
2040 1 19.914 7.197 3 6.02109 -147740 -153574 -81618.1 -12221.4 16997.1 -36729 -7.41566 
2041 1 19.195 5.975 3 6.02508 -142035 -156841 -96722.8 15841.4 5535.35 -28832.6 -7.41458 
2042 1 19.893 4.741 3 6.02302 -148242 -152597 -85335.4 -6285.73 14425.3 -37461.5 -7.41545 
2043 1 19.174 3.519 3 6.02246 -139494 -158068 -95910.7 16019.5 792.013 -31980.8 -7.41488 
2044 1 19.872 2.285 3 6.02691 -138401 -138323 -88732.6 4840.16 10919.2 -37347.8 -7.41501 
2045 1 19.152 1.063 3 6.02409 -172810 -117725 -94090.1 13117.3 -4428.56 -34362 -7.41508 
2240 1 22.052 8.406 3 6.02387 -134706 -122911 -74419.6 -9964.77 17123.6 -33123.8 -7.41547 
2241 1 21.332 7.184 3 6.02367 -120351 -131166 -94397.2 11524.8 4121.1 -23430.1 -7.41424 
2242 1 22.031 5.95 3 6.02354 -139698 -155512 -78385.7 -28370.1 15700.3 -33686.6 -7.41578 
2243 1 21.311 4.729 3 6.02066 -132328 -143312 -93220.2 -8002.46 381.488 -26668.9 -7.41449 
2244 1 22.009 3.494 3 6.01953 -143815 -157559 -82604 -46657 13218.5 -33612.3 -7.41547 
2245 1 21.29 2.273 3 6.02367 -150695 -187512 -91221.5 -3412.39 -3998.41 -29346.7 -7.41545 
2246 1 21.988 1.039 3 6.02168 -139693 -151607 -86305.5 -11061.4 9873.84 -32841.7 -7.41548 
2441 1 23.47 8.394 3 6.02796 -136416 -156184 -93028.6 16457.2 2444.39 -17971.1 -7.41523 
2442 1 24.168 7.16 3 6.02795 -150357 -151942 -72177.1 -6931.38 16578.1 -29797.3 -7.41617 
2443 1 23.449 5.938 3 6.02217 -137072 -157478 -91795.2 16680.4 -687.567 -20989.1 -7.41522 
2444 1 24.147 4.704 3 6.02723 -140338 -138914 -76145.7 5152.03 14950.6 -29578 -7.41555 
2445 1 23.427 3.482 3 6.0239 -124507 -125651 -89421.5 16844.5 -4343.02 -23707.4 -7.41485 
2446 1 24.126 2.248 3 6.02531 -130429 -126466 -80421.6 -10614.7 12631.1 -28795.5 -7.41491 
2447 1 23.406 1.026 3 6.02431 -123383 -123546 -86221.3 8254.44 -8127.01 -25888.9 -7.41467 
2642 1 26.306 8.37 3 6.02364 -133705 -121977 -65876.2 -13750.5 17435.7 -26370.1 -7.41614 
2643 1 25.586 7.148 3 6.02652 -132972 -141152 -90561.1 28798.1 -1899.28 -15734.4 -7.4145 
2644 1 26.284 5.914 3 6.02023 -146688 -154853 -70375.6 -9387.27 16510.9 -25753 -7.41627 
2645 1 25.565 4.692 3 6.02723 -140792 -154629 -88064.2 18287.3 -4891.1 -18230 -7.41529 
2646 1 26.263 3.458 3 6.02549 -143969 -153401 -74825.5 -9724.16 14762 -24876.6 -7.41636 
2647 1 25.544 2.236 3 6.02796 -140518 -154426 -85073 16466.5 -8117.97 -20438.6 -7.41569 
2648 1 26.242 1.002 3 6.02714 -143624 -148176 -79229.2 -4786.29 12357.2 -23556.2 -7.41576 
2843 1 27.724 8.357 3 6.0183 -133955 -158630 -90423.6 11257.7 -2931.6 -11292.5 -7.41502 
2844 1 28.422 7.123 3 6.02331 -149912 -170492 -64492.7 -16530 18128.2 -22755.6 -7.4165 
2845 1 27.702 5.902 3 6.02161 -121557 -126182 -87846.5 -21156.6 -5631.08 -13512.8 -7.41478 
2846 1 28.401 4.667 3 6.0204 -129582 -126887 -69442.4 -47656.2 16936.6 -21652.2 -7.41559 
2847 1 27.681 3.446 3 6.02331 -132294 -158372 -84520.7 -3100.79 -8515.01 -15548.6 -7.41521 
2848 1 28.38 2.212 3 6.02223 -175022 -124543 -74292.3 -13742.5 14918 -20348 -7.41593 
2849 1 27.66 0.99 3 6.02507 -136776 -133375 -80834.8 24658.3 -11499.8 -17476.4 -7.41502 
15305 2 19.068 8.761 6.4 6.02248 -151867 -149684 -81141.7 -9207.41 20241.7 -35333.8 -7.41569 
15306 2 19.787 7.539 6.4 6.0222 -138300 -159944 -96307.4 10775.4 6115.51 -27205.8 -7.4146 
15307 2 19.089 6.305 6.4 6.02335 -142807 -136509 -84947 -26206.8 17940.6 -36198 -7.41508 
15308 2 19.809 5.083 6.4 6.0241 -171371 -125774 -95696.6 7983.39 2218.44 -31093 -7.41488 
15309 2 19.11 3.849 6.4 6.02498 -130298 -124067 -88366.9 -15366.4 14304.7 -36425.4 -7.41483 
15310 2 19.83 2.627 6.4 6.0241 -124691 -128290 -94202.6 8503.26 -2210.88 -34138.2 -7.41438 
15311 2 19.131 1.393 6.4 6.0241 -128501 -125827 -91460.2 -15167.7 9593.46 -35826.9 -7.41455 
15312 2 19.851 0.171 6.4 6.02429 -125381 -120482 -91698.2 10398.6 -6712.35 -36242.5 -7.41463 
15506 2 21.904 8.785 6.4 6.0241 -120843 -129188 -94406.6 9134.99 4404.73 -21533.7 -7.41436 
15507 2 21.205 7.551 6.4 6.0241 -133744 -123470 -77710.1 -14542.5 18403.2 -32815.8 -7.41529 
15508 2 21.925 6.329 6.4 6.02498 -122069 -127939 -93446.7 8336.48 1310.22 -25371.5 -7.41455 
15509 2 21.226 5.095 6.4 6.0241 -179871 -121467 -81813.8 -15825.8 16054.3 -33001.5 -7.41564 
15510 2 21.946 3.873 6.4 6.02335 -133941 -141259 -91472.5 -3205.06 -2298.77 -28704.6 -7.41471 
15511 2 21.248 2.639 6.4 6.0222 -145984 -156251 -85686.3 -13669.6 12659.5 -32470.9 -7.41519 
15512 2 21.967 1.417 6.4 6.02289 -141407 -157303 -89324.2 12824 -6116.74 -31171.4 -7.41513 
15513 2 21.269 0.183 6.4 6.02446 -147433 -184278 -88563.3 2581.77 8433.63 -31272 -7.41566 
15707 2 23.322 8.797 6.4 6.02197 -149847 -153015 -71249.8 -11372.5 18501.1 -29332.3 -7.41623 
15708 2 24.041 7.575 6.4 6.02248 -136864 -158282 -92195.4 13207.3 249.44 -19545.3 -7.41494 
15709 2 23.343 6.341 6.4 6.02341 -155441 -185102 -75141.5 5987.99 17194.2 -29161.4 -7.41653 
15710 2 24.062 5.12 6.4 6.02097 -136977 -157823 -90186.3 48171.5 -2840.73 -22650 -7.41525 
15711 2 23.364 3.885 6.4 6.02097 -146970 -154602 -79186.9 21178.4 14840.8 -28637.8 -7.41565 
15712 2 24.083 2.664 6.4 6.02197 -147179 -190357 -87314.5 30410.4 -6123.51 -25284.1 -7.41564 
15713 2 23.385 1.43 6.4 6.02336 -136318 -141722 -82841.3 -24803.4 11741.9 -27494.6 -7.41508 
15714 2 24.105 0.208 6.4 6.02409 -127118 -119762 -84133.6 13605.1 -9571.4 -27403.4 -7.41489 
15908 2 26.157 8.822 6.4 6.02197 -135340 -157292 -91552.9 12802.5 -821.838 -14233 -7.41509 
15909 2 25.459 7.588 6.4 6.02336 -142905 -137205 -68753.9 -24196.7 18098 -25830.1 -7.41596 
15910 2 26.179 6.366 6.4 6.0241 -123493 -125998 -89452 10659 -3564.82 -17167.2 -7.41459 
15911 2 25.48 5.132 6.4 6.02392 -131490 -124850 -73124 -15867.5 16673 -25008.4 -7.41553 
15912 2 26.2 3.91 6.4 6.02531 -123438 -127297 -86632.6 9340.06 -6487.77 -19693.7 -7.41478 
15913 2 25.501 2.676 6.4 6.0241 -128796 -123365 -77394.8 -16754.5 14375.2 -23874.2 -7.41563 
15914 2 26.221 1.454 6.4 6.02795 -135142 -139971 -83134.8 -4341.05 -9490.82 -21847.8 -7.41518 
15915 2 25.523 0.22 6.4 6.02423 -141024 -150465 -81483.4 -19861.9 11406.8 -22315.9 -7.41564 
16109 2 27.575 8.834 6.4 6.0241 -134806 -121495 -62701.2 -16710.9 18839 -23259.8 -7.41632 
16110 2 28.295 7.612 6.4 6.02795 -130273 -139965 -89588.7 -4777.96 -4079.77 -12421.6 -7.41479 
16111 2 27.597 6.378 6.4 6.02463 -147504 -154174 -67462.7 -16476.2 18121.4 -22012 -7.41642 
16112 2 28.316 5.156 6.4 6.02549 -139057 -153706 -86197.8 8040.44 -6774.21 -14693.1 -7.4155 
16113 2 27.618 3.922 6.4 6.0258 -145428 -153013 -72235 -16296.4 16572.9 -20716.5 -7.41638 
16114 2 28.337 2.7 6.4 6.02302 -139226 -154480 -82782.8 10147.2 -9593.14 -16844.1 -7.41578 
16115 2 27.639 1.466 6.4 6.02508 -147415 -153162 -76475 -16375.9 14223 -19216.7 -7.4157 
16116 2 28.358 0.244 6.4 6.02091 -138277 -152568 -78814.4 17805.8 -12419.9 -18706.9 -7.41566 
3044 1 30.559 8.333 3 6.02463 -148541 -153957 -59108.5 -9426.13 19950.7 -21092.6 -7.41688 
3045 1 29.84 7.111 3 6.02549 -137975 -152607 -88167.3 17523 -6120.81 -9948.52 -7.41539 
3046 1 30.538 5.877 3 6.02723 -148810 -152148 -64127 -8088.83 19066.6 -19500.7 -7.4166 
3047 1 29.819 4.655 3 6.02163 -137906 -155427 -84895.9 16153.6 -8895.61 -11611 -7.41545 
3048 1 30.517 3.421 3 6.02508 -141000 -138400 -69037.9 1451.46 17396.3 -17884.5 -7.41568 
3049 1 29.797 2.199 3 6.02248 -171553 -124250 -80813.9 12316.5 -11742.1 -13367.3 -7.41556 
3050 1 30.496 0.965 3 6.02395 -132553 -154215 -74183.5 -26405.8 15301.1 -16194.1 -7.41564 
3245 1 31.977 8.321 3 6.0241 -120225 -124528 -88801.9 12216.2 -6322.56 -7992.08 -7.41463 
3246 1 32.676 7.087 3 6.02364 -132031 -122279 -58656.1 -14463.5 21482.7 -18751 -7.41652 
3247 1 31.956 5.865 3 6.02652 -132944 -138644 -85358.1 28057.4 -8991.71 -9128.13 -7.41477 
3248 1 32.654 4.631 3 6.02023 -144346 -154179 -64268.5 -9586.45 20056 -16721.9 -7.41671 
3249 1 31.935 3.409 3 6.02795 -141002 -152353 -81302.2 17728.4 -11772.3 -10474.7 -7.41563 
3250 1 32.633 2.175 3 6.02796 -143121 -152535 -69817.1 -9578.8 18029 -14876.8 -7.41651 
3251 1 31.914 0.953 3 6.02383 -138933 -146519 -76878.6 12863.1 -14576 -12036.2 -7.41621 
3446 1 34.813 8.296 3 6.02364 -150540 -151694 -53340.9 -11645.7 24177.5 -19427.4 -7.41718 
3447 1 34.094 7.074 3 6.0183 -133791 -156394 -86350.3 10216.2 -8619.34 -8234.38 -7.41522 
3448 1 34.792 5.84 3 6.0231 -146628 -173009 -59204.9 -16758.4 22887.3 -17066.7 -7.41666 
3449 1 34.072 4.619 3 6.02352 -128646 -157458 -82309.1 -5022.35 -11591.5 -9183.44 -7.4154 
3450 1 34.771 3.385 3 6.02367 -126792 -127079 -65020.3 -14275 20925.2 -15009.5 -7.41582 
3451 1 34.051 2.163 3 6.02531 -124535 -123912 -77718.4 12451 -14565.8 -10430.6 -7.41526 
3452 1 34.75 0.929 3 6.02325 -125006 -116940 -70578.6 -10693.3 18412.5 -13167.5 -7.41583 
3647 1 36.231 8.284 3 6.02795 -129728 -136444 -87290.4 27600.9 -7776.24 -8946.85 -7.41488 
3648 1 36.929 7.05 3 6.02463 -146631 -154517 -53802.1 -8952.16 25957.7 -18823.1 -7.41716 
3649 1 36.21 5.828 3 6.02302 -137843 -150974 -83232.2 16349.5 -10914.3 -9395.85 -7.41563 
3650 1 36.908 4.594 3 6.02364 -146069 -153134 -59880.4 -10964.4 24041.2 -16413.2 -7.41678 
3651 1 36.189 3.372 3 6.02248 -137657 -151939 -78775.4 9620.4 -14107.9 -10262.1 -7.41597 
3652 1 36.887 2.138 3 6.02404 -144819 -151686 -65959.2 -10771.9 21479.4 -14384.1 -7.41649 
3653 1 36.168 0.916 3 6.01951 -137028 -150528 -73627.7 7343.47 -17223.2 -11481.8 -7.41591 
16310 2 30.411 8.858 6.4 6.02248 -136731 -152973 -90035.6 12603 -4160.92 -9149.54 -7.41515 
16311 2 29.713 7.624 6.4 6.02364 -150944 -151250 -61739.7 -14352.7 19640.3 -20239.5 -7.41674 
16312 2 30.432 6.402 6.4 6.01969 -134379 -158031 -87031.6 14073.9 -6857.34 -10896.4 -7.4152 
16313 2 29.734 5.168 6.4 6.0231 -149150 -169860 -66635.6 -8451.75 18545.5 -18464.3 -7.41638 
16314 2 30.454 3.947 6.4 6.02021 -170327 -124209 -83270.7 46567.2 -9839.19 -12729.4 -7.41539 
16315 2 29.755 2.712 6.4 6.02179 -128742 -126072 -71502.4 20440.8 16693.5 -16790.2 -7.41547 
16316 2 30.475 1.491 6.4 6.02354 -132770 -157913 -78834.3 30247.3 -12686.7 -14494.5 -7.41553 
16317 2 29.776 0.257 6.4 6.02327 -123917 -121937 -76360.4 -14731.3 14459 -15099.1 -7.4152 
16511 2 31.829 8.871 6.4 6.02336 -143555 -136830 -55909.6 -25032.8 21314.9 -19856 -7.41665 
16512 2 32.549 7.649 6.4 6.0241 -120244 -122875 -87662 11445 -6626.61 -8685.71 -7.4149 
16513 2 31.85 6.415 6.4 6.02364 -131842 -123900 -61109.4 -11381.6 20648.7 -17703.9 -7.41618 
16514 2 32.57 5.193 6.4 6.02531 -123891 -124919 -84039 9279.07 -9594.71 -10075.7 -7.41465 
16515 2 31.871 3.959 6.4 6.0239 -178232 -121145 -66604.5 -17186.8 19196.9 -15659 -7.41645 
16516 2 32.591 2.737 6.4 6.02723 -133795 -137916 -79771.5 -3893.84 -12561.1 -11550.5 -7.41532 
16517 2 31.893 1.503 6.4 6.02217 -142285 -153786 -71941.8 -16526.6 17090.3 -13738 -7.4163 
16518 2 32.612 0.281 6.4 6.02578 -141285 -146264 -75003.6 10993.8 -15435.4 -13138.2 -7.4161 
16712 2 34.665 8.895 6.4 6.02795 -128592 -137595 -88752.6 -6143.47 -5753.2 -8111.06 -7.41481 
16713 2 33.967 7.661 6.4 6.02463 -148065 -153709 -55959.6 -16689.5 22851.6 -18273 -7.41705 
16714 2 34.686 6.439 6.4 6.02795 -137927 -151910 -85147.7 6557.94 -8900.44 -8959.21 -7.41541 
16715 2 33.988 5.205 6.4 6.02796 -145919 -152086 -61642.6 -16255.1 21660.3 -15906.9 -7.41694 
16716 2 34.707 3.983 6.4 6.02302 -136704 -152226 -80711.4 8827.34 -12148.7 -10098.8 -7.41599 
16717 2 34.009 2.749 6.4 6.02508 -147599 -152235 -67121.8 -16041.6 19738.8 -13792.7 -7.41617 
16718 2 34.728 1.527 6.4 6.01911 -137656 -156594 -75955.6 13867.8 -15346.7 -11466 -7.41582 
16719 2 34.03 0.293 6.4 6.02412 -142416 -164635 -72500.1 -12205 17341.9 -11958 -7.41603 
16913 2 36.083 8.907 6.4 6.02364 -151355 -151375 -50085.5 -14150.6 25403.5 -20355.3 -7.41737 
16914 2 36.802 7.685 6.4 6.01969 -134068 -153835 -86143.9 12764.2 -7710.56 -9500.33 -7.41535 
16915 2 36.104 6.451 6.4 6.02508 -141282 -137461 -56200.4 -26493.2 24374.8 -17590.7 -7.41662 
16916 2 36.824 5.229 6.4 6.02367 -119333 -124766 -81975.1 12403.5 -11335.3 -10240.2 -7.41508 
16917 2 36.125 3.995 6.4 6.02354 -135577 -159328 -62286.1 4997.21 22511.3 -15202.4 -7.41629 
16918 2 36.845 2.774 6.4 6.02354 -129035 -159580 -77191.7 29123.7 -14921.7 -11283.9 -7.41546 
16919 2 36.146 1.54 6.4 6.02367 -125677 -124319 -68040.5 -11235.3 20161.5 -13190.5 -7.41588 
16920 2 36.866 0.318 6.4 6.02651 -134999 -132530 -71793.2 -637.718 -18367.8 -12660.3 -7.41549 
3848 1 39.067 8.26 3 6.0231 -132629 -124446 -47700.9 -12892.6 29232.3 -21808.1 -7.41691 
3849 1 38.347 7.038 3 6.0241 -121558 -124207 -84089.5 12770.7 -9760.56 -11056.6 -7.41462 
3850 1 39.046 5.804 3 6.0239 -130098 -125062 -54460.8 -8691.56 27382.5 -19138.8 -7.41653 
3851 1 38.326 4.582 3 6.02531 -122185 -123375 -79778.6 15867.3 -13264.5 -11541.4 -7.41511 
3852 1 39.025 3.348 3 6.0241 -175461 -121340 -61032.1 -7458.32 24698.4 -16865.5 -7.41686 
3853 1 38.305 2.126 3 6.02795 -133957 -136542 -74786.5 27755.3 -16774.5 -12427.1 -7.41559 
3854 1 39.003 0.892 3 6.02423 -139409 -148934 -67325.6 -4654.46 21435 -14966.4 -7.41638 
4048 1 41.204 9.469 3 6.02341 -148322 -153955 -41450.7 -11988.7 32565.3 -25563.3 -7.41805 
4049 1 40.485 8.247 3 6.02248 -132252 -154418 -84699.2 8289.9 -8082.06 -13796.1 -7.4155 
4050 1 41.183 7.013 3 6.02367 -155973 -186082 -48544.9 -27511.4 30793.8 -22759 -7.41775 
4051 1 40.464 5.792 3 6.01953 -134522 -155770 -80570.6 -24324.4 -11830 -13885.8 -7.41551 
4052 1 41.162 4.557 3 6.02066 -137843 -140064 -55326.8 -33235.6 28206.7 -20345.4 -7.41652 
4053 1 40.442 3.336 3 6.02215 -178118 -153802 -75549.7 -5829.55 -15787.1 -14470.3 -7.41624 
4054 1 41.141 2.102 3 6.0231 -125269 -126890 -61907.2 -11477.3 24826.6 -18286 -7.41599 
4055 1 40.421 0.88 3 6.02409 -124682 -119146 -70042 9774.79 -19626.8 -15503.1 -7.41539 
4249 1 42.622 9.457 3 6.02603 -118121 -124641 -84817.7 13528.9 -6177.7 -17149.7 -7.41482 
4250 1 43.321 8.223 3 6.0241 -131769 -125035 -41569.1 -6670.56 34235.3 -26866.4 -7.41746 
4251 1 42.601 7.001 3 6.02691 -128281 -137835 -80795.4 27102 -10132.5 -17053.6 -7.41536 
4252 1 43.299 5.767 3 6.02246 -144249 -156609 -49068.3 -6953.16 31703.8 -24324 -7.4174 
4253 1 42.58 4.545 3 6.02302 -138294 -152474 -76162.4 14624.6 -14248.2 -17385.1 -7.41588 
4254 1 43.278 3.311 3 6.02364 -143663 -154947 -55990.1 -8920.68 28386 -22264.6 -7.41698 
4255 1 42.559 2.089 3 6.02289 -136277 -155232 -70914.2 8191.19 -18454.9 -18139.7 -7.41628 
4256 1 43.257 0.855 3 6.02446 -147170 -183092 -62919.1 -23238.8 24382.4 -20611.2 -7.41681 
4450 1 45.458 9.433 3 6.02248 -149449 -155815 -34135.6 -10421.5 37384.8 -30913.8 -7.41824 
4451 1 44.739 8.211 3 6.0222 -135136 -156131 -80649.1 11215.2 -7985.55 -20511.1 -7.41539 
4452 1 45.437 6.977 3 6.02475 -139565 -141511 -42151.6 7160.09 35177.1 -28580.8 -7.4174 
4453 1 44.717 5.755 3 6.0241 -119947 -124036 -76255.6 13503.4 -12461.6 -20728.8 -7.41551 
4454 1 45.416 4.521 3 6.02498 -126975 -127414 -49659.5 -6160.18 31950.6 -26493.9 -7.41691 
4455 1 44.696 3.299 3 6.02603 -121411 -126177 -71200.4 13191.2 -17017.6 -21250.4 -7.41558 
4456 1 45.395 2.065 3 6.02411 -125735 -125160 -56740.4 -5309.53 27940.1 -24777.6 -7.41662 
4457 1 44.675 0.843 3 6.02555 -131125 -133516 -65416.6 23753.7 -21621.6 -22188.7 -7.41619 
4651 1 46.876 9.42 3 6.02279 -126301 -142309 -80073.8 20141.9 -5972.37 -23826.3 -7.41515 
4653 1 46.855 6.965 3 6.02097 -135457 -156389 -75966.6 -24512.8 -10338.9 -23948.9 -7.41576 
4655 1 46.834 4.509 3 6.02341 -143077 -188133 -71080.9 -8948.8 -15111 -24364.7 -7.41669 
4657 1 46.813 2.053 3 6.02197 -137263 -157036 -65588.4 8845.66 -20018 -25045.3 -7.4165 
17114 2 38.919 8.932 6.4 6.0241 -118486 -123936 -86668.3 10297.2 -6175.48 -11455.7 -7.41472 
17115 2 38.22 7.698 6.4 6.02367 -132226 -122443 -50255.8 -11013.3 27259.3 -20541.4 -7.41698 
17116 2 38.94 6.476 6.4 6.02508 -129479 -137572 -82721.5 -3181.96 -9932.55 -11757.9 -7.41513 
17117 2 38.242 5.242 6.4 6.01969 -144790 -154256 -56863.4 -10389.9 25509 -17841.7 -7.41698 
17118 2 38.961 4.02 6.4 6.02508 -140588 -152395 -78135.9 7668.01 -13849.1 -12436.2 -7.41553 
17119 2 38.263 2.786 6.4 6.02302 -142285 -152027 -63086.1 -15067.3 23097.2 -15603.9 -7.41697 
17120 2 38.982 1.564 6.4 6.02796 -138810 -152244 -73033.9 7894.26 -17773 -13513.7 -7.4163 
17121 2 38.284 0.33 6.4 6.02714 -141853 -146020 -69183.7 -19875.7 20126.2 -13782.5 -7.41627 
17315 2 40.337 8.944 6.4 6.02463 -148236 -155105 -44290.9 -15499.7 30325.1 -24346.3 -7.41769 
17316 2 41.056 7.722 6.4 6.02795 -136228 -152040 -83470.7 4921.59 -8115.79 -14401.5 -7.41548 
17317 2 40.358 6.488 6.4 6.02795 -148365 -152578 -51183.7 -16741.7 28654 -21495.2 -7.41729 
17318 2 41.077 5.266 6.4 6.02217 -134623 -154296 -78993.1 6687.67 -12385.1 -14752.1 -7.41586 
17319 2 40.379 4.032 6.4 6.02723 -138830 -137741 -57742.6 -27892 26171.2 -19024 -7.41651 
17320 2 41.099 2.81 6.4 6.0239 -170364 -121751 -73763.9 6325.68 -16769.5 -15500.9 -7.41602 
17321 2 40.4 1.576 6.4 6.02531 -128718 -124266 -64026.7 -14232.9 23132.7 -17004.5 -7.41576 
17322 2 41.12 0.354 6.4 6.02417 -121201 -121731 -68078.2 15356.9 -21007.3 -16687.5 -7.41561 
17516 2 43.172 8.968 6.4 6.01969 -132627 -155034 -83564.9 11284.4 -6017.31 -17696.1 -7.41548 
17517 2 42.474 7.734 6.4 6.02508 -141340 -139458 -44313.3 -24870.4 31977.8 -25708.1 -7.41727 
17518 2 43.194 6.512 6.4 6.02367 -117552 -125935 -79394.8 10670.8 -10574.5 -17923.5 -7.41521 
17519 2 42.495 5.278 6.4 6.02354 -136981 -158553 -51647.7 6390.82 29571.8 -23191 -7.41699 
17520 2 43.215 4.057 6.4 6.02179 -120445 -126828 -74522.7 43255.1 -15235.7 -18469.5 -7.41526 
17521 2 42.516 2.822 6.4 6.02021 -174435 -124145 -58553.1 23154.4 26311.6 -21059.1 -7.41673 
17522 2 43.236 1.601 6.4 6.0231 -140732 -170959 -69055.9 14535.2 -19874.3 -19341.4 -7.41622 
17523 2 42.538 0.367 6.4 6.01889 -136807 -151990 -65062.1 -11961.7 22568.6 -19323.7 -7.41637 
17717 2 44.59 8.981 6.4 6.02367 -130789 -127967 -37110.8 -9215.1 35250.2 -30079.6 -7.41758 