ITEM: TIMESTEP
0
ITEM: NUMBER OF ATOMS
296
ITEM: BOX BOUNDS pp pp pp
0.0000000000000000e+00 1.4939264800000000e+01
0.0000000000000000e+00 2.5875565600000002e+01
0.0000000000000000e+00 1.8399999999999999e+01
ITEM: ATOMS id type x y z c_csym c_2[1] c_2[2] c_2[3] c_2[4] c_2[5] c_2[6] c_3 
16 1 1.00941 12.2384 7.5 6.03194 -141837 -158441 19809.5 -3989.96 -37412.7 21982.4 -7.42039 
17 1 1.61506 10.9563 7.5 6.03194 -131418 -148164 -81678.2 12716.7 13064.1 9340.25 -7.41481 
18 1 0.807528 9.79075 7.5 6.03194 -157710 -159399 107609 -1453.57 -20263.5 18558.8 -7.42536 
19 1 1.41317 8.50863 7.5 6.03194 -138657 -136434 -104429 8423.69 -6914.58 -5244.75 -7.4136 
20 1 0.605646 7.34307 7.5 6.03194 -157717 -159392 107609 1457.66 26204.1 8269.3 -7.42536 
21 1 1.21129 6.06094 7.5 6.03194 -154991 -124592 -81678.2 892.697 1556.87 -15983.9 -7.41481 
22 1 0.403764 4.89538 7.5 6.03194 -142283 -158084 18190.6 3564.47 56199.6 -611.611 -7.42038 
23 1 1.00941 3.61325 7.5 6.03194 -158176 -121855 -78485.5 -4182.26 22633.7 -19788.9 -7.41505 
24 1 0.201882 2.44769 7.5 6.03194 -130262 -150659 -78152.7 3230.56 43790.7 -3063.26 -7.41503 
25 1 0.807528 1.16557 7.5 6.03194 -144285 -130806 -105085 -5174.28 17902.7 -16796.6 -7.4136 
26 1 0 0 7.5 6.03194 -136328 -136330 -115904 0.356808 -0.00193941 0.000654059 -7.41301 
38 1 3.83576 12.0053 7.5 6.03194 -134557 -145474 -78485.5 17818.6 5820.85 29495.8 -7.41505 
39 1 3.02823 10.8398 7.5 6.03194 -151047 -149321 18190.6 -8623.91 -27570.2 48976.1 -7.42038 
40 1 3.63388 9.55764 7.5 6.03194 -134557 -145474 -78071 17818.6 -23958 3934 -7.41505 
41 1 2.82635 8.39208 7.5 6.03194 -160055 -147892 58773.4 -87.5161 796.823 42626 -7.42261 
42 1 3.43199 7.10995 7.5 6.03194 -149981 -140442 -30816.7 10045.5 -25167.5 -22733.9 -7.41757 
43 1 2.62447 5.94439 7.5 6.03194 -150835 -149444 19809.5 9184.05 37743.7 21409.2 -7.42039 
44 1 3.23011 4.66226 7.5 6.03194 -159607 -136156 -2507.76 -499.276 4250.74 -43325.3 -7.41917 
45 1 2.42258 3.4967 7.5 6.03194 -135099 -149399 -57133.8 15322 41622.5 -3057.07 -7.4162 
46 1 3.02823 2.21458 7.5 6.03194 -151527 -138896 -32049.2 -9153.24 24621.4 -48812.7 -7.41757 
47 1 2.2207 1.04901 7.5 6.03194 -133413 -143227 -96676 14840 9942.41 -24859.7 -7.41408 
59 1 5.24893 11.8888 7.5 6.03194 -142762 -138160 -78152.7 -10447.1 -19242.5 39455.5 -7.41503 
60 1 5.85458 10.6067 7.5 6.03194 -131419 -148164 -82726.3 12717 -36286.1 11509 -7.41481 
61 1 5.04705 9.44108 7.5 6.03194 -157839 -130758 -38434.4 -5135.92 -19278.8 42030.9 -7.41722 
62 1 5.65269 8.15896 7.5 6.03194 -142451 -153312 -2885.03 10404.5 -50857 -7075.85 -7.41917 
63 1 4.84517 6.9934 7.5 6.03194 -156268 -132455 -38230.9 3987.24 7105.54 30578.2 -7.41716 
64 1 5.45081 5.71127 7.5 6.03194 -157664 -153203 74534.1 3955.78 -24307.4 -27565 -7.42346 
65 1 4.64328 4.54571 7.5 6.03194 -140686 -140468 -75476.8 13711.9 21141.8 8704.02 -7.41516 
66 1 5.24893 3.26358 7.5 6.03194 -157744 -153123 73110.7 -3909.57 17552 -41705.2 -7.42346 
67 1 4.4414 2.09802 7.5 6.03194 -131915 -146454 -85334.9 18259.6 1833.14 -16287.6 -7.41465 
68 1 5.04705 0.815896 7.5 6.03194 -141586 -154177 -2885.03 -9905.66 31556.4 -40505.6 -7.41917 
80 1 8.07528 11.6557 7.5 6.03194 -129695 -145396 -105085 -3249.02 -23497.6 -7105.93 -7.4136 
81 1 7.26775 10.4901 7.5 6.03194 -153625 -123014 -96676 -3170.01 -26500.3 3819.48 -7.41408 
82 1 7.8734 9.20797 7.5 6.03194 -134127 -156296 -32049.2 -892.288 -54583.8 3083.58 -7.41757 
83 1 7.06587 8.04241 7.5 6.03194 -158633 -119736 -85334.9 -2833.83 -15022.1 6556.27 -7.41465 
84 1 7.67151 6.76028 7.5 6.03194 -150892 -159975 73110.7 -46.2679 -44893.7 5652.14 -7.42346 
85 1 6.86399 5.59472 7.5 6.03194 -146284 -128573 -105231 1493.56 2771.57 4929.99 -7.41355 
86 1 7.46963 4.31259 7.5 6.03194 -160248 -160248 126502 0.128246 -0.00064702 0.000176204 -7.42641 
87 1 6.6621 3.14703 7.5 6.03194 -131707 -143150 -105231 6922.51 -5655.28 -64.7486 -7.41355 
88 1 7.26775 1.86491 7.5 6.03194 -150892 -159975 74534.1 -46.2531 36025.7 -7268.31 -7.42346 
89 1 6.46022 0.69934 7.5 6.03194 -134955 -153768 -38230.9 8318.01 -30034.3 -9135.52 -7.41716 
100 1 10.296 12.7047 7.5 6.03194 -132965 -146618 -82726.3 -13609.7 8176 -37179.2 -7.41481 
101 1 9.48845 11.5391 7.5 6.03194 -148358 -132564 -78152.7 7216.29 -24548.2 -36392.2 -7.41503 
102 1 10.0941 10.257 7.5 6.03194 -127313 -152718 -78485.5 -13636.6 -28454.5 -9706.89 -7.41505 
103 1 9.28657 9.09141 7.5 6.03194 -159093 -125405 -57133.8 -1469.04 -23458.8 -34517.6 -7.4162 
104 1 9.89222 7.80929 7.5 6.03194 -141586 -154177 -2507.76 -9905.22 -39646.2 17981.4 -7.41917 
105 1 9.08469 6.64373 7.5 6.03194 -152397 -128756 -75476.8 -6950.68 -3033.01 -22661.4 -7.41516 
106 1 9.69033 5.3616 7.5 6.03194 -157744 -153123 74534.2 -3909.59 -11718.3 34833.3 -7.42346 
107 1 8.88281 4.19604 7.5 6.03194 -134295 -140563 -105231 -8415.92 2883.72 -4865.25 -7.41355 
108 1 9.48845 2.91392 7.5 6.03194 -157664 -153203 73110.7 3955.75 27341.8 36053 -7.42346 
109 1 8.68092 1.74835 7.5 6.03194 -128647 -152507 -75476.8 -6761.45 -18108.8 13957.3 -7.41516 
110 1 9.28657 0.466226 7.5 6.03194 -142451 -153313 -2507.76 10404 35395.5 25343.9 -7.41917 
121 1 11.7092 12.5881 7.5 6.03194 -141977 -146621 -38434.4 14294.2 -26760.4 -37711.4 -7.41722 
122 1 12.3148 11.306 7.5 6.03194 -127313 -152718 -78071 -13636.6 8572.06 -22715.2 -7.41505 
123 1 11.5073 10.1404 7.5 6.03194 -157221 -143147 18190.6 5059.29 -28629.5 -48364.5 -7.42038 
124 1 12.1129 8.8583 7.5 6.03194 -132965 -146618 -81678.2 -13609.4 -14620.9 6643.68 -7.41481 
125 1 11.3054 7.69274 7.5 6.03194 -157745 -142533 19809.5 -5194.32 -330.983 -43391.6 -7.42039 
126 1 11.911 6.41061 7.5 6.03194 -151527 -138896 -30816.7 -9153.22 -7104.45 33162.6 -7.41757 
127 1 11.1035 5.24505 7.5 6.03194 -141861 -146861 -38230.9 -12304.7 22928.7 -21442.7 -7.41716 
128 1 11.7092 3.96292 7.5 6.03194 -159607 -136156 -2885.03 -499.254 19300.7 47581.4 -7.41917 
129 1 10.9016 2.79736 7.5 6.03194 -127006 -151363 -85334.9 -15425.7 13188.9 9731.35 -7.41465 
130 1 11.5073 1.51524 7.5 6.03194 -149981 -140442 -32049.2 10045.6 29962.3 45729.1 -7.41757 
131 1 10.6997 0.34967 7.5 6.03194 -132554 -151944 -57133.8 -13853 -18163.8 37574.7 -7.4162 
138 1 14.5355 12.355 7.5 6.03194 -134126 -156296 -30816.7 -892.526 32271.9 -10428.7 -7.41757 
139 1 13.728 11.1894 7.5 6.03194 -151008 -156938 58773.4 5310.18 -37313.6 -20622.9 -7.42261 
140 1 14.3336 9.90731 7.5 6.03194 -129693 -145396 -104429 -3249.14 7999.37 -3365.83 -7.4136 
141 1 13.5261 8.74175 7.5 6.03194 -160236 -156875 107609 -4.11652 -5940.63 -26828.1 -7.42536 
142 1 14.1317 7.45962 7.5 6.03194 -144283 -130806 -104429 -5174.4 -1084.8 8610.57 -7.4136 
143 1 13.3242 6.29406 7.5 6.03194 -150857 -157089 58773.4 -5222.84 36516.8 -22003.1 -7.42261 
144 1 13.9299 5.01193 7.5 6.03194 -158175 -121855 -78071 -4182.32 15385.9 18781.2 -7.41505 
145 1 13.1223 3.84637 7.5 6.03194 -133080 -155517 -38434.4 -9158.08 46039.3 -4319.52 -7.41722 
146 1 13.728 2.56425 7.5 6.03194 -154990 -124592 -82726.3 892.547 28110.1 25670.2 -7.41481 
147 1 12.9204 1.39868 7.5 6.03194 -127922 -148717 -96676 -11669.4 16557.9 21040.2 -7.41408 
148 1 13.5261 0.116557 7.5 6.03194 -138656 -136435 -105085 8423.18 5594.89 23902.5 -7.4136 
149 2 0 8.62519 10.9 6.03194 -160248 -160248 126502 -0.226551 0.00208802 0.000248526 -7.42641 
150 2 0.201882 6.1775 10.9 6.03194 -150892 -159974 73110.7 46.0984 44893.7 5652.14 -7.42346 
151 2 0.403764 3.72981 10.9 6.03194 -134126 -156296 -32049.2 892.249 54583.8 3083.58 -7.41757 
152 2 0.605646 1.28212 10.9 6.03194 -129695 -145396 -105085 3248.67 23497.6 -7105.93 -7.4136 
153 2 0 0 10.9 6.03194 -136328 -136330 -115904 0.271402 0.00219668 -0.000472633 -7.41301 
164 2 1.81694 12.4716 10.9 6.03194 -142451 -153312 -2507.76 -10404.5 -35395.5 25343.9 -7.41917 
165 2 1.21129 11.1894 10.9 6.03194 -128646 -152506 -75476.8 6761.61 18108.8 13957.3 -7.41516 
166 2 2.01882 10.0239 10.9 6.03194 -157664 -153203 73110.7 -3955.82 -27341.8 36053 -7.42346 
167 2 1.41317 8.74175 10.9 6.03194 -134294 -140563 -105231 8415.88 -2883.71 -4865.25 -7.41355 
168 2 2.2207 7.57618 10.9 6.03194 -157744 -153123 74534.1 3909.56 11718.3 34833.3 -7.42346 
169 2 1.61506 6.29406 10.9 6.03194 -152397 -128756 -75476.8 6950.48 3033.01 -22661.4 -7.41516 
170 2 2.42258 5.12849 10.9 6.03194 -141586 -154176 -2507.76 9905.08 39646.2 17981.4 -7.41917 
171 2 1.81694 3.84637 10.9 6.03194 -159093 -125405 -57133.8 1469.14 23458.8 -34517.6 -7.4162 
172 2 2.62447 2.6808 10.9 6.03194 -127313 -152718 -78485.5 13636.7 28454.5 -9706.89 -7.41505 
173 2 2.01882 1.39868 10.9 6.03194 -148358 -132564 -78152.7 -7216.49 24548.2 -36392.2 -7.41503 
174 2 2.82635 0.233113 10.9 6.03194 -132965 -146619 -82726.3 13609 -8176 -37179.2 -7.41481 
185 2 3.23011 12.5881 10.9 6.03194 -132555 -151943 -57133.8 13853 18163.8 37574.7 -7.4162 
186 2 4.03764 11.4225 10.9 6.03194 -149981 -140442 -32049.2 -10045.8 -29962.3 45729.1 -7.41757 
187 2 3.43199 10.1404 10.9 6.03194 -127006 -151363 -85334.9 15425.7 -13188.9 9731.35 -7.41465 
188 2 4.23952 8.97486 10.9 6.03194 -159607 -136156 -2885.03 499.151 -19300.7 47581.4 -7.41917 
189 2 3.63388 7.69274 10.9 6.03194 -141861 -146862 -38230.9 12304.9 -22928.7 -21442.7 -7.41716 
190 2 4.4414 6.52717 10.9 6.03194 -151527 -138896 -30816.7 9153.75 7104.45 33162.6 -7.41757 
191 2 3.83576 5.24505 10.9 6.03194 -157746 -142533 19809.5 5194.47 330.983 -43391.6 -7.42039 
192 2 4.64328 4.07948 10.9 6.03194 -132965 -146618 -81678.2 13609.5 14620.9 6643.68 -7.41481 
193 2 4.03764 2.79736 10.9 6.03194 -157221 -143147 18190.6 -5059.18 28629.5 -48364.5 -7.42038 
194 2 4.84517 1.63179 10.9 6.03194 -127313 -152718 -78071 13636.6 -8572.06 -22715.2 -7.41505 
195 2 4.23952 0.34967 10.9 6.03194 -141977 -146621 -38434.4 -14293.9 26760.4 -37711.4 -7.41722 
206 2 6.05646 12.8212 10.9 6.03194 -138657 -136434 -105085 -8423.45 -5594.89 23902.5 -7.4136 
207 2 5.45081 11.5391 10.9 6.03194 -127922 -148717 -96676 11669.5 -16557.9 21040.2 -7.41408 
208 2 6.25834 10.3735 10.9 6.03194 -154991 -124592 -82726.3 -892.649 -28110.1 25670.2 -7.41481 
209 2 5.65269 9.09141 10.9 6.03194 -133080 -155517 -38434.4 9157.96 -46039.3 -4319.52 -7.41722 
210 2 6.46022 7.92585 10.9 6.03194 -158176 -121855 -78071 4182.06 -15385.9 18781.2 -7.41505 
211 2 5.85458 6.64373 10.9 6.03194 -150857 -157089 58773.4 5223.05 -36516.8 -22003.1 -7.42261 
212 2 6.6621 5.47816 10.9 6.03194 -144285 -130806 -104429 5174.48 1084.8 8610.57 -7.4136 
213 2 6.05646 4.19604 10.9 6.03194 -160236 -156874 107609 4.09612 5940.64 -26828.1 -7.42536 
214 2 6.86399 3.03047 10.9 6.03194 -129695 -145396 -104429 3249.02 -7999.37 -3365.83 -7.4136 
215 2 6.25834 1.74835 10.9 6.03194 -151008 -156938 58773.4 -5310.18 37313.6 -20622.9 -7.42261 
216 2 7.06587 0.582783 10.9 6.03194 -134127 -156297 -30816.7 892.126 -32271.9 -10428.7 -7.41757 
228 2 8.27716 11.7722 10.9 6.03194 -144285 -130806 -105085 5174.48 -17902.7 -16796.6 -7.4136 
229 2 7.67151 10.4901 10.9 6.03194 -130263 -150659 -78152.7 -3230.82 -43790.7 -3063.26 -7.41503 
230 2 8.47904 9.32453 10.9 6.03194 -158176 -121855 -78485.5 4182.04 -22633.7 -19788.9 -7.41505 
231 2 7.8734 8.04241 10.9 6.03194 -142284 -158084 18190.6 -3564.62 -56199.6 -611.61 -7.42038 
232 2 8.68092 6.87684 10.9 6.03194 -154991 -124592 -81678.2 -892.683 -1556.86 -15983.9 -7.41481 
233 2 8.07528 5.59472 10.9 6.03194 -157718 -159392 107609 -1457.58 -26204.1 8269.3 -7.42536 
234 2 8.88281 4.42915 10.9 6.03194 -138657 -136434 -104429 -8423.49 6914.58 -5244.75 -7.4136 
235 2 8.27716 3.14703 10.9 6.03194 -157711 -159399 107609 1453.29 20263.5 18558.8 -7.42536 
236 2 9.08469 1.98146 10.9 6.03194 -131419 -148164 -81678.2 -12717 -13064.1 9340.25 -7.41481 
237 2 8.47904 0.69934 10.9 6.03194 -141838 -158441 19809.5 3990.37 37412.7 21982.4 -7.42039 
249 2 9.69033 11.8888 10.9 6.03194 -133412 -143227 -96676 -14839.6 -9942.41 -24859.7 -7.41408 
250 2 10.4979 10.7232 10.9 6.03194 -151527 -138897 -32049.2 9153.38 -24621.4 -48812.7 -7.41757 
251 2 9.89222 9.44108 10.9 6.03194 -135099 -149399 -57133.8 -15322.2 -41622.5 -3057.07 -7.4162 
252 2 10.6997 8.27552 10.9 6.03194 -159607 -136155 -2507.76 499.068 -4250.74 -43325.3 -7.41917 
253 2 10.0941 6.9934 10.9 6.03194 -150835 -149444 19809.5 -9184.24 -37743.7 21409.2 -7.42039 
254 2 10.9016 5.82783 10.9 6.03194 -149981 -140442 -30816.7 -10045.8 25167.5 -22733.9 -7.41757 
255 2 10.296 4.54571 10.9 6.03194 -160054 -147892 58773.4 87.3795 -796.822 42626 -7.42261 
256 2 11.1035 3.38014 10.9 6.03194 -134557 -145474 -78071 -17818.6 23958 3934 -7.41505 
257 2 10.4979 2.09802 10.9 6.03194 -151047 -149321 18190.6 8623.88 27570.2 48976.1 -7.42038 
258 2 11.3054 0.932453 10.9 6.03194 -134557 -145474 -78485.5 -17818.8 -5820.85 29495.8 -7.41505 
270 2 12.5167 12.1219 10.9 6.03194 -141586 -154176 -2885.03 9905.45 -31556.4 -40505.6 -7.41917 
271 2 11.911 10.8398 10.9 6.03194 -131915 -146454 -85334.9 -18259.1 -1833.14 -16287.6 -7.41465 
272 2 12.7186 9.6742 10.9 6.03194 -157744 -153123 73110.7 3909.9 -17552 -41705.2 -7.42346 
273 2 12.1129 8.39208 10.9 6.03194 -140686 -140467 -75476.8 -13712.1 -21141.8 8704.02 -7.41516 
274 2 12.9204 7.22651 10.9 6.03194 -157664 -153203 74534.2 -3955.92 24307.4 -27565 -7.42346 
275 2 12.3148 5.94439 10.9 6.03194 -156267 -132455 -38230.9 -3987.19 -7105.54 30578.2 -7.41716 
276 2 13.1223 4.77882 10.9 6.03194 -142451 -153312 -2885.03 -10404.4 50857 -7075.85 -7.41917 
277 2 12.5167 3.4967 10.9 6.03194 -157838 -130759 -38434.4 5136.18 19278.8 42030.9 -7.41722 
278 2 13.3242 2.33113 10.9 6.03194 -131418 -148164 -82726.3 -12716.8 36286.1 11509 -7.41481 
279 2 12.7186 1.04901 10.9 6.03194 -142762 -138160 -78152.7 10447.3 19242.5 39455.5 -7.41503 
291 2 13.9299 12.2384 10.9 6.03194 -134955 -153767 -38230.9 -8317.75 30034.3 -9135.53 -7.41716 
292 2 14.7374 11.0729 10.9 6.03194 -150891 -159975 74534.1 46.2024 -36025.7 -7268.31 -7.42346 
293 2 14.1317 9.79075 10.9 6.03194 -131707 -143150 -105231 -6922.75 5655.28 -64.7485 -7.41355 
294 2 14.3336 7.34307 10.9 6.03194 -146283 -128572 -105231 -1493.8 -2771.57 4929.99 -7.41355 
295 2 14.5355 4.89538 10.9 6.03194 -158632 -119736 -85334.9 2833.86 15022.1 6556.27 -7.41465 
296 2 14.7374 2.44769 10.9 6.03194 -153624 -123014 -96676 3169.98 26500.3 3819.48 -7.41408 
1 1 0.605646 24.5934 7.5 6.03194 -129695 -145397 -105085 -3248.41 -23497.6 -7105.93 -7.4136 
2 1 0.403764 22.1458 7.5 6.03194 -134126 -156296 -32049.2 -892.306 -54583.8 3083.58 -7.41757 
3 1 0.201882 19.6981 7.5 6.03194 -150892 -159974 73110.7 -46.1029 -44893.7 5652.14 -7.42346 
4 1 0 17.2504 7.5 6.03194 -160248 -160248 126502 0.189238 -0.00224528 9.34332e-05 -7.42641 
5 1 2.82635 25.6425 7.5 6.03194 -132964 -146619 -82726.3 -13609.1 8176 -37179.2 -7.41481 
6 1 2.01882 24.4769 7.5 6.03194 -148358 -132564 -78152.7 7216.49 -24548.2 -36392.2 -7.41503 
7 1 2.62447 23.1948 7.5 6.03194 -127313 -152718 -78485.5 -13636.6 -28454.5 -9706.89 -7.41505 
8 1 1.81694 22.0292 7.5 6.03194 -159093 -125405 -57133.8 -1469.18 -23458.8 -34517.6 -7.4162 
9 1 2.42258 20.7471 7.5 6.03194 -141586 -154176 -2507.76 -9905.29 -39646.2 17981.4 -7.41917 
10 1 1.61506 19.5815 7.5 6.03194 -152397 -128756 -75476.8 -6950.86 -3033.01 -22661.4 -7.41516 
11 1 2.2207 18.2994 7.5 6.03194 -157744 -153123 74534.1 -3910.09 -11718.3 34833.3 -7.42346 
12 1 1.41317 17.1338 7.5 6.03194 -134294 -140563 -105231 -8416.18 2883.72 -4865.25 -7.41355 
13 1 2.01882 15.8517 7.5 6.03194 -157664 -153203 73110.7 3955.87 27341.8 36053 -7.42346 
14 1 1.21129 14.6861 7.5 6.03194 -128646 -152506 -75476.8 -6761.64 -18108.8 13957.3 -7.41516 
15 1 1.81694 13.404 7.5 6.03194 -142451 -153312 -2507.76 10404.4 35395.5 25343.9 -7.41917 
27 1 4.23952 25.5259 7.5 6.03194 -141977 -146622 -38434.4 14293.7 -26760.4 -37711.4 -7.41722 
28 1 4.84517 24.2438 7.5 6.03194 -127313 -152718 -78071 -13636.5 8572.06 -22715.2 -7.41505 
29 1 4.03764 23.0782 7.5 6.03194 -157221 -143147 18190.6 5059.25 -28629.5 -48364.5 -7.42038 
30 1 4.64328 21.7961 7.5 6.03194 -132965 -146618 -81678.2 -13609.3 -14620.9 6643.68 -7.41481 
31 1 3.83576 20.6305 7.5 6.03194 -157746 -142533 19809.5 -5194.09 -330.983 -43391.6 -7.42039 
32 1 4.4414 19.3484 7.5 6.03194 -151527 -138897 -30816.7 -9153.37 -7104.45 33162.6 -7.41757 
33 1 3.63388 18.1828 7.5 6.03194 -141861 -146861 -38230.9 -12304.7 22928.7 -21442.7 -7.41716 
34 1 4.23952 16.9007 7.5 6.03194 -159607 -136156 -2885.03 -499.11 19300.7 47581.4 -7.41917 
35 1 3.43199 15.7351 7.5 6.03194 -127006 -151363 -85334.9 -15425.7 13188.9 9731.35 -7.41465 
36 1 4.03764 14.453 7.5 6.03194 -149981 -140442 -32049.2 10045.8 29962.3 45729.1 -7.41757 
37 1 3.23011 13.2875 7.5 6.03194 -132555 -151943 -57133.8 -13853 -18163.8 37574.7 -7.4162 
48 1 7.06587 25.2928 7.5 6.03194 -134127 -156297 -30816.7 -891.999 32271.9 -10428.7 -7.41757 
49 1 6.25834 24.1272 7.5 6.03194 -151008 -156938 58773.4 5310.21 -37313.6 -20622.9 -7.42261 
50 1 6.86399 22.8451 7.5 6.03194 -129695 -145396 -104429 -3249.02 7999.37 -3365.83 -7.4136 
51 1 6.05646 21.6795 7.5 6.03194 -160236 -156874 107609 -4.09505 -5940.64 -26828.1 -7.42536 
52 1 6.6621 20.3974 7.5 6.03194 -144285 -130806 -104429 -5174.48 -1084.8 8610.57 -7.4136 
53 1 5.85458 19.2318 7.5 6.03194 -150857 -157089 58773.4 -5223.05 36516.8 -22003.1 -7.42261 
54 1 6.46022 17.9497 7.5 6.03194 -158176 -121855 -78071 -4182.04 15385.9 18781.2 -7.41505 
55 1 5.65269 16.7842 7.5 6.03194 -133080 -155517 -38434.4 -9157.9 46039.3 -4319.52 -7.41722 
56 1 6.25834 15.502 7.5 6.03194 -154991 -124592 -82726.3 892.686 28110.1 25670.2 -7.41481 
57 1 5.45081 14.3365 7.5 6.03194 -127922 -148717 -96676 -11669.4 16557.9 21040.2 -7.41408 
58 1 6.05646 13.0543 7.5 6.03194 -138657 -136434 -105085 8423.49 5594.89 23902.5 -7.4136 
69 1 8.47904 25.1762 7.5 6.03194 -141838 -158441 19809.5 -3990.53 -37412.7 21982.4 -7.42039 
70 1 9.08469 23.8941 7.5 6.03194 -131419 -148164 -81678.2 12716.6 13064.1 9340.25 -7.41481 
71 1 8.27716 22.7285 7.5 6.03194 -157712 -159399 107609 -1453.51 -20263.5 18558.8 -7.42536 
72 1 8.88281 21.4464 7.5 6.03194 -138657 -136434 -104429 8423.43 -6914.58 -5244.75 -7.4136 
73 1 8.07528 20.2808 7.5 6.03194 -157718 -159392 107609 1457.54 26204.1 8269.3 -7.42536 
74 1 8.68092 18.9987 7.5 6.03194 -154991 -124592 -81678.2 892.626 1556.86 -15983.9 -7.41481 
75 1 7.8734 17.8332 7.5 6.03194 -142284 -158084 18190.6 3564.58 56199.6 -611.61 -7.42038 
76 1 8.47904 16.551 7.5 6.03194 -158176 -121855 -78485.5 -4182.1 22633.7 -19788.9 -7.41505 
77 1 7.67151 15.3855 7.5 6.03194 -130263 -150659 -78152.7 3230.8 43790.7 -3063.26 -7.41503 
78 1 8.27716 14.1033 7.5 6.03194 -144285 -130806 -105085 -5174.48 17902.7 -16796.6 -7.4136 
79 1 7.46963 12.9378 7.5 6.03194 -136329 -136329 -115904 -0.0671475 -0.000301319 -2.50116e-05 -7.41301 
90 1 11.3054 24.9431 7.5 6.03194 -134557 -145474 -78485.5 17819 5820.85 29495.8 -7.41505 
91 1 10.4979 23.7775 7.5 6.03194 -151047 -149321 18190.6 -8623.66 -27570.2 48976.1 -7.42038 
92 1 11.1035 22.4954 7.5 6.03194 -134557 -145474 -78071 17818.6 -23958 3934 -7.41505 
93 1 10.296 21.3299 7.5 6.03194 -160054 -147892 58773.4 -87.4006 796.822 42626 -7.42261 
94 1 10.9016 20.0477 7.5 6.03194 -149981 -140442 -30816.7 10045.8 -25167.5 -22733.9 -7.41757 
95 1 10.0941 18.8822 7.5 6.03194 -150835 -149444 19809.5 9184.22 37743.7 21409.2 -7.42039 
96 1 10.6997 17.6 7.5 6.03194 -159607 -136155 -2507.76 -499.047 4250.74 -43325.3 -7.41917 
97 1 9.89222 16.4345 7.5 6.03194 -135099 -149399 -57133.8 15322.2 41622.5 -3057.07 -7.4162 
98 1 10.4979 15.1524 7.5 6.03194 -151527 -138897 -32049.2 -9153.59 24621.4 -48812.7 -7.41757 
99 1 9.69033 13.9868 7.5 6.03194 -133412 -143227 -96676 14839.2 9942.41 -24859.7 -7.41408 
111 1 12.7186 24.8266 7.5 6.03194 -142762 -138160 -78152.7 -10447.3 -19242.5 39455.5 -7.41503 
112 1 13.3242 23.5444 7.5 6.03194 -131418 -148164 -82726.3 12716.8 -36286.1 11509 -7.41481 
113 1 12.5167 22.3789 7.5 6.03194 -157838 -130759 -38434.4 -5136.13 -19278.8 42030.9 -7.41722 
114 1 13.1223 21.0967 7.5 6.03194 -142451 -153312 -2885.03 10404.5 -50857 -7075.85 -7.41917 
115 1 12.3148 19.9312 7.5 6.03194 -156268 -132455 -38230.9 3987.24 7105.54 30578.2 -7.41716 
116 1 12.9204 18.6491 7.5 6.03194 -157664 -153203 74534.1 3955.96 -24307.4 -27565 -7.42346 
117 1 12.1129 17.4835 7.5 6.03194 -140686 -140467 -75476.8 13712.2 21141.8 8704.02 -7.41516 
118 1 12.7186 16.2014 7.5 6.03194 -157744 -153123 73110.7 -3909.69 17552 -41705.2 -7.42346 
119 1 11.911 15.0358 7.5 6.03194 -131915 -146454 -85334.9 18259.5 1833.14 -16287.6 -7.41465 
120 1 12.5167 13.7537 7.5 6.03194 -141586 -154176 -2885.02 -9905.07 31556.4 -40505.6 -7.41917 
132 1 14.7374 23.4279 7.5 6.03194 -153624 -123014 -96676 -3170.02 -26500.3 3819.48 -7.41408 
133 1 14.5355 20.9802 7.5 6.03194 -158632 -119736 -85334.9 -2833.88 -15022.1 6556.27 -7.41465 
134 1 14.3336 18.5325 7.5 6.03194 -146283 -128572 -105231 1493.79 2771.57 4929.99 -7.41355 
135 1 14.1317 16.0848 7.5 6.03194 -131707 -143150 -105231 6922.76 -5655.28 -64.7485 -7.41355 
136 1 14.7374 14.8027 7.5 6.03194 -150891 -159975 74534.1 -46.2024 36025.7 -7268.31 -7.42346 
137 1 13.9299 13.6371 7.5 6.03194 -134955 -153767 -38230.9 8317.76 -30034.3 -9135.53 -7.41716 
154 2 0.807528 24.71 10.9 6.03194 -144285 -130807 -105085 5174.63 -17902.7 -16796.6 -7.4136 
155 2 0.201882 23.4279 10.9 6.03194 -130262 -150659 -78152.7 -3230.55 -43790.7 -3063.26 -7.41503 
156 2 1.00941 22.2623 10.9 6.03194 -158176 -121855 -78485.5 4182.26 -22633.7 -19788.9 -7.41505 
157 2 0.403764 20.9802 10.9 6.03194 -142283 -158084 18190.6 -3564.47 -56199.6 -611.61 -7.42038 
158 2 1.21129 19.8146 10.9 6.03194 -154991 -124592 -81678.2 -892.696 -1556.87 -15983.9 -7.41481 
159 2 0.605646 18.5325 10.9 6.03194 -157717 -159392 107609 -1457.51 -26204.1 8269.3 -7.42536 
160 2 1.41317 17.3669 10.9 6.03194 -138657 -136434 -104429 -8423.61 6914.58 -5244.75 -7.4136 
161 2 0.807528 16.0848 10.9 6.03194 -157710 -159400 107609 1453.48 20263.5 18558.8 -7.42536 
162 2 1.61506 14.9192 10.9 6.03194 -131418 -148164 -81678.2 -12716.8 -13064.1 9340.25 -7.41481 
163 2 1.00941 13.6371 10.9 6.03194 -141837 -158441 19809.5 3989.92 37412.7 21982.4 -7.42039 
175 2 2.2207 24.8266 10.9 6.03194 -133413 -143227 -96676 -14840.2 -9942.41 -24859.7 -7.41408 
176 2 3.02823 23.661 10.9 6.03194 -151527 -138896 -32049.2 9153.19 -24621.4 -48812.7 -7.41757 
177 2 2.42258 22.3789 10.9 6.03194 -135099 -149399 -57133.8 -15322.1 -41622.5 -3057.07 -7.4162 
178 2 3.23011 21.2133 10.9 6.03194 -159607 -136156 -2507.76 499.22 -4250.74 -43325.3 -7.41917 
179 2 2.62447 19.9312 10.9 6.03194 -150835 -149444 19809.5 -9184.26 -37743.7 21409.2 -7.42039 
180 2 3.43199 18.7656 10.9 6.03194 -149981 -140442 -30816.7 -10045.8 25167.5 -22733.9 -7.41757 
181 2 2.82635 17.4835 10.9 6.03194 -160054 -147892 58773.4 87.1724 -796.823 42626 -7.42261 
182 2 3.63388 16.3179 10.9 6.03194 -134557 -145474 -78071 -17818.8 23958 3934 -7.41505 
183 2 3.02823 15.0358 10.9 6.03194 -151047 -149321 18190.6 8623.87 27570.2 48976.1 -7.42038 
184 2 3.83576 13.8702 10.9 6.03194 -134557 -145474 -78485.5 -17818.6 -5820.85 29495.8 -7.41505 
196 2 5.04705 25.0597 10.9 6.03194 -141586 -154177 -2885.03 9905.33 -31556.4 -40505.6 -7.41917 
197 2 4.4414 23.7775 10.9 6.03194 -131915 -146454 -85334.9 -18259.7 -1833.14 -16287.6 -7.41465 
198 2 5.24893 22.612 10.9 6.03194 -157744 -153123 73110.7 3909.6 -17552 -41705.2 -7.42346 
199 2 4.64328 21.3299 10.9 6.03194 -140686 -140468 -75476.8 -13711.8 -21141.8 8704.02 -7.41516 
200 2 5.45081 20.1643 10.9 6.03194 -157664 -153203 74534.2 -3955.42 24307.4 -27565 -7.42346 
201 2 4.84517 18.8822 10.9 6.03194 -156268 -132455 -38230.9 -3986.87 -7105.54 30578.2 -7.41716 
202 2 5.65269 17.7166 10.9 6.03194 -142451 -153312 -2885.03 -10404.1 50857 -7075.85 -7.41917 
203 2 5.04705 16.4345 10.9 6.03194 -157839 -130758 -38434.4 5136.3 19278.8 42030.9 -7.41722 
204 2 5.85458 15.2689 10.9 6.03194 -131419 -148164 -82726.3 -12716.8 36286.1 11509 -7.41481 
205 2 5.24893 13.9868 10.9 6.03194 -142762 -138160 -78152.7 10447.2 19242.5 39455.5 -7.41503 
217 2 6.46022 25.1762 10.9 6.03194 -134955 -153768 -38230.9 -8318.05 30034.3 -9135.52 -7.41716 
218 2 7.26775 24.0107 10.9 6.03194 -150892 -159975 74534.1 46.143 -36025.7 -7268.31 -7.42346 
219 2 6.6621 22.7285 10.9 6.03194 -131707 -143150 -105231 -6922.46 5655.28 -64.7485 -7.41355 
220 2 7.46963 21.563 10.9 6.03194 -160248 -160248 126502 -0.111932 0.000464648 7.08177e-05 -7.42641 
221 2 6.86399 20.2808 10.9 6.03194 -146284 -128573 -105231 -1493.56 -2771.57 4929.99 -7.41355 
222 2 7.67151 19.1153 10.9 6.03194 -150892 -159975 73110.7 46.2679 44893.7 5652.14 -7.42346 
223 2 7.06587 17.8332 10.9 6.03194 -158633 -119736 -85334.9 2833.84 15022.1 6556.27 -7.41465 
224 2 7.8734 16.6676 10.9 6.03194 -134127 -156296 -32049.2 892.252 54583.8 3083.58 -7.41757 
225 2 7.26775 15.3855 10.9 6.03194 -153625 -123014 -96676 3170 26500.3 3819.48 -7.41408 
226 2 8.07528 14.2199 10.9 6.03194 -129695 -145396 -105085 3249.02 23497.6 -7105.93 -7.4136 
227 2 7.46963 12.9378 10.9 6.03194 -136329 -136329 -115904 0.0671375 0.00029432 -4.02164e-05 -7.41301 
238 2 9.28657 25.4093 10.9 6.03194 -142451 -153313 -2507.76 -10404 -35395.5 25343.9 -7.41917 
239 2 8.68092 24.1272 10.9 6.03194 -128647 -152507 -75476.8 6761.42 18108.8 13957.3 -7.41516 
240 2 9.48845 22.9617 10.9 6.03194 -157664 -153203 73110.7 -3955.82 -27341.8 36053 -7.42346 
241 2 8.88281 21.6795 10.9 6.03194 -134295 -140563 -105231 8415.88 -2883.72 -4865.25 -7.41355 
242 2 9.69033 20.514 10.9 6.03194 -157744 -153123 74534.1 3909.54 11718.3 34833.3 -7.42346 
243 2 9.08469 19.2318 10.9 6.03194 -152397 -128756 -75476.8 6950.65 3033.01 -22661.4 -7.41516 
244 2 9.89222 18.0663 10.9 6.03194 -141586 -154176 -2507.76 9905.27 39646.2 17981.4 -7.41917 
245 2 9.28657 16.7842 10.9 6.03194 -159093 -125404 -57133.8 1468.93 23458.8 -34517.6 -7.4162 
246 2 10.0941 15.6186 10.9 6.03194 -127313 -152717 -78485.5 13636.4 28454.5 -9706.89 -7.41505 
247 2 9.48845 14.3365 10.9 6.03194 -148358 -132564 -78152.7 -7216.51 24548.2 -36392.2 -7.41503 
248 2 10.296 13.1709 10.9 6.03194 -132965 -146618 -82726.3 13609.3 -8176 -37179.2 -7.41481 
259 2 10.6997 25.5259 10.9 6.03194 -132554 -151944 -57133.8 13852.9 18163.8 37574.7 -7.4162 
260 2 11.5073 24.3603 10.9 6.03194 -149981 -140442 -32049.2 -10045.8 -29962.3 45729.1 -7.41757 
261 2 10.9016 23.0782 10.9 6.03194 -127006 -151363 -85334.9 15425.6 -13188.9 9731.35 -7.41465 
262 2 11.7092 21.9126 10.9 6.03194 -159607 -136156 -2885.03 499.27 -19300.7 47581.4 -7.41917 
263 2 11.1035 20.6305 10.9 6.03194 -141861 -146861 -38230.9 12304.6 -22928.7 -21442.7 -7.41716 
264 2 11.911 19.465 10.9 6.03194 -151527 -138896 -30816.7 9153.24 7104.45 33162.6 -7.41757 
265 2 11.3054 18.1828 10.9 6.03194 -157745 -142533 19809.5 5194.32 330.984 -43391.6 -7.42039 
266 2 12.1129 17.0173 10.9 6.03194 -132964 -146618 -81678.2 13609.4 14620.9 6643.68 -7.41481 
267 2 11.5073 15.7351 10.9 6.03194 -157221 -143148 18190.6 -5059.15 28629.5 -48364.5 -7.42038 
268 2 12.3148 14.5696 10.9 6.03194 -127313 -152718 -78071 13636.9 -8572.06 -22715.2 -7.41505 
269 2 11.7092 13.2875 10.9 6.03194 -141977 -146621 -38434.4 -14293.8 26760.4 -37711.4 -7.41722 
280 2 13.5261 25.759 10.9 6.03194 -138656 -136434 -105085 -8423.1 -5594.89 23902.5 -7.4136 
281 2 12.9204 24.4769 10.9 6.03194 -127921 -148717 -96676 11669.8 -16557.9 21040.2 -7.41408 
282 2 13.728 23.3113 10.9 6.03194 -154990 -124592 -82726.3 -892.341 -28110.1 25670.2 -7.41481 
283 2 13.1223 22.0292 10.9 6.03194 -133080 -155517 -38434.4 9158.14 -46039.3 -4319.52 -7.41722 
284 2 13.9299 20.8636 10.9 6.03194 -158175 -121855 -78071 4182.35 -15385.9 18781.2 -7.41505 
285 2 13.3242 19.5815 10.9 6.03194 -150857 -157089 58773.4 5222.9 -36516.8 -22003.1 -7.42261 
286 2 14.1317 18.4159 10.9 6.03194 -144283 -130806 -104429 5174.46 1084.8 8610.57 -7.4136 
287 2 13.5261 17.1338 10.9 6.03194 -160236 -156875 107609 4.31966 5940.63 -26828.1 -7.42536 
288 2 14.3336 15.9683 10.9 6.03194 -129693 -145397 -104429 3249.22 -7999.37 -3365.83 -7.4136 
289 2 13.728 14.6861 10.9 6.03194 -151008 -156938 58773.4 -5310.29 37313.6 -20622.9 -7.42261 
290 2 14.5355 13.5206 10.9 6.03194 -134126 -156296 -30816.7 892.52 -32271.9 -10428.7 -7.41757 
