ITEM: TIMESTEP
53
ITEM: NUMBER OF ATOMS
296
ITEM: BOX BOUNDS pp pp pp
0.0000000000000000e+00 1.4939264800000000e+01
0.0000000000000000e+00 2.5875565600000002e+01
0.0000000000000000e+00 1.8399999999999999e+01
ITEM: ATOMS id type x y z c_csym c_2[1] c_2[2] c_2[3] c_2[4] c_2[5] c_2[6] c_3 
16 1 1.00908 12.2402 7.4831 6.01422 -147536 -139688 35027.4 34808.6 -43753.2 24457.4 -7.42043 
17 1 1.61434 10.9578 7.4813 6.02461 -147022 -134814 -56578.2 37607.3 18090.7 2198.14 -7.41438 
18 1 0.806973 9.79181 7.49295 6.01533 -155087 -131247 115797 12369.1 -21989.2 22324.1 -7.42583 
19 1 1.41285 8.5095 7.49126 6.02485 -158734 -122227 -90525.5 851.916 -9262.57 -10112 -7.41269 
20 1 0.606833 7.34302 7.49295 6.01533 -147857 -138480 115797 -16392.9 30327.9 7881.18 -7.42583 
21 1 1.21292 6.06082 7.4813 6.02461 -170484 -111337 -56578.2 -24196.3 -7141.68 -16766 -7.41438 
22 1 0.40671 4.89478 7.46622 6.01428 -136237 -150043 40124.4 -20386.4 51649.3 -3641.96 -7.42064 
23 1 1.01206 3.61248 7.4474 6.01446 -165793 -115882 -24049.1 -17814.4 10860.7 -16000.4 -7.41586 
24 1 0.204373 2.44736 7.42835 6.02499 -132138 -149395 -10957.3 -7397.61 30522.4 -3801.02 -7.41641 
25 1 0.808793 1.16466 7.41691 6.02838 -148551 -131220 -20066.8 -4544.47 9986.58 -11134.8 -7.41551 
26 1 -9.17727e-08 2.8904e-08 7.41074 6.03572 -139488 -139482 -22345.5 34.0623 0.0355605 -0.00379177 -7.41522 
38 1 3.8351 12.008 7.4474 6.01446 -143788 -137880 -24049.1 30521.7 8426.43 17405.7 -7.41586 
39 1 3.02727 10.8426 7.46622 6.01428 -164346 -121920 40124.4 4394.26 -22670.7 46550.5 -7.42064 
40 1 3.63206 9.55979 7.46819 6.01554 -159435 -124543 -42316.9 9584.87 -22034.4 -3435.64 -7.41534 
41 1 2.826 8.39351 7.48487 6.01588 -178154 -107806 71080.6 -16488.9 8484.78 46840.4 -7.42267 
42 1 3.43125 7.11059 7.48538 6.01845 -179670 -106204 -12946.7 -18833.9 -31959.2 -28927.8 -7.41727 
43 1 2.62613 5.94381 7.4831 6.01422 -171820 -115392 35027.4 -20866.7 43057.3 25662.7 -7.42043 
44 1 3.2313 4.6609 7.47527 6.01745 -183319 -100792 19929.8 -22192.1 -5554.24 -44894 -7.41906 
45 1 2.42512 3.49486 7.45525 6.0135 -153684 -131061 -15140.6 -1180.99 35733.5 1332.32 -7.41689 
46 1 3.0297 2.21198 7.44773 6.01698 -165629 -117963 9738.06 -6162.31 15412 -41044.5 -7.41817 
47 1 2.22177 1.04685 7.42825 6.01956 -141649 -139290 -22843.6 15630.4 5289.76 -14266.9 -7.41561 
59 1 5.24797 11.8911 7.42835 6.02499 -151544 -130005 -10957.4 -3683.18 -11969.4 28333.8 -7.41641 
60 1 5.85229 10.6082 7.43349 6.0185 -142467 -139761 -17910.1 2843.43 -26095.8 6584.36 -7.41615 
61 1 5.04504 9.44286 7.45542 6.0148 -174829 -107854 1111.9 -16937.2 -8330.03 37423.4 -7.4176 
62 1 5.65 8.16011 7.46837 6.01227 -155560 -131177 21188.6 -15585.4 -48884.7 -8463.66 -7.41949 
63 1 4.84438 6.99371 7.48266 6.02101 -182999 -100789 -16967.4 -24852.6 16411.5 34509.3 -7.41678 
64 1 5.44985 5.71094 7.48986 6.0133 -169369 -117276 84611.5 -20655.1 -31239.1 -31542.4 -7.42367 
65 1 4.64437 4.54428 7.48367 6.02013 -169293 -114917 -54223.9 -2963.24 24220.5 15570.6 -7.4148 
66 1 5.24963 3.26153 7.48332 6.0137 -168988 -117694 83837.1 -132.914 13675.7 -44888 -7.42368 
67 1 4.44259 2.09563 7.46548 6.01642 -150450 -131666 -45035.1 29248.6 -1430.32 -6822.5 -7.41492 
68 1 5.04741 0.812988 7.46837 6.01227 -150756 -135981 21188.6 18318.5 31772.1 -38103.6 -7.41949 
80 1 8.07386 11.655 7.41691 6.02839 -131591 -148189 -20066.8 -5169.37 -14636.4 -3081.23 -7.41551 
81 1 7.26534 10.4903 7.42825 6.01956 -153412 -127511 -22843.6 -8846.19 -15000.4 2552.27 -7.41561 
82 1 7.87041 9.20799 7.44773 6.01698 -124430 -159161 9738.07 -17364.8 -43251.5 7175.06 -7.41817 
83 1 7.06321 8.04258 7.46548 6.01642 -161783 -120342 -45035.1 -22908.8 -5193.27 4650.01 -7.41492 
84 1 7.66938 6.76071 7.48332 6.0137 -130277 -156401 83837.2 -21938.5 -45712 10600.5 -7.42368 
85 1 6.86314 5.5945 7.49095 6.02686 -155812 -124709 -90732.3 -15388.4 8013.56 5603.98 -7.41263 
86 1 7.46963 4.31259 7.49675 6.02169 -142853 -142849 134642 69.6668 0.00544214 0.0175969 -7.42705 
87 1 6.66272 3.1464 7.49095 6.02686 -145711 -134802 -90732.3 20995.9 -8859.96 4137.97 -7.41263 
88 1 7.26852 1.86424 7.48986 6.0133 -148233 -138411 84611.5 32965.4 42936 -11282.7 -7.42367 
89 1 6.46034 0.698502 7.48266 6.02101 -142875 -140926 -16967.4 48027.4 -38091.7 -3041.93 -7.41678 
100 1 10.2957 12.7019 7.43349 6.0185 -137949 -144264 -17910.1 -284.633 7345.77 -25891.9 -7.41615 
101 1 9.48692 11.5371 7.42835 6.02499 -138633 -142913 -10957.4 11259.1 -18553.1 -24532.7 -7.41641 
102 1 10.0921 10.2551 7.4474 6.01446 -112923 -168743 -24049.1 -12705.6 -19287 -1405.39 -7.41586 
103 1 9.2837 9.09013 7.45525 6.0135 -135781 -148971 -15140.5 -9349.79 -16713 -31612.2 -7.41689 
104 1 9.89044 7.80895 7.47527 6.01745 -102102 -182017 19929.7 -24446 -36102.3 27257.2 -7.41906 
105 1 9.08291 6.6435 7.48367 6.02013 -126085 -158108 -54223.9 -22323.6 1374.27 -28760.9 -7.4148 
106 1 9.69053 5.3626 7.48986 6.0133 -112366 -174279 84611.5 -12148 -11696.9 42825 -7.42367 
107 1 8.88304 4.19688 7.49095 6.02686 -119259 -161269 -90732.3 -5942.64 846.434 -9741.94 -7.41263 
108 1 9.48989 2.91555 7.48332 6.0137 -130747 -155930 83837.1 22486.1 32036.3 34287.5 -7.42368 
109 1 8.68162 1.75 7.48367 6.02013 -130923 -153281 -54223.9 24770.3 -25594.8 13190.3 -7.4148 
110 1 9.28716 0.467934 7.47527 6.01745 -140758 -143360 19929.8 47020.2 41656.6 17636.9 -7.41906 
121 1 11.7086 12.5855 7.45542 6.0148 -139370 -143322 1111.9 37656.4 -28244.6 -25925.7 -7.4176 
122 1 12.3138 11.3033 7.46819 6.01554 -124821 -159174 -42316.9 10059.5 13992.5 -17364.5 -7.41534 
123 1 11.5053 10.1382 7.46622 6.01429 -128823 -157439 40124.4 16345.9 -28978.5 -42908.8 -7.42064 
124 1 12.112 8.85695 7.4813 6.02461 -105232 -176588 -56578.3 -13622.3 -10948.9 14567.8 -7.41438 
125 1 11.3041 7.69158 7.4831 6.01422 -111470 -175750 35027.4 -14064 695.831 -50120.1 -7.42043 
126 1 11.912 6.41094 7.48538 6.01845 -108332 -177532 -12946.7 -22538.1 -9072.59 42141.3 -7.41727 
127 1 11.1042 5.24557 7.48266 6.02101 -99820.6 -183978 -16967.4 -23164.4 21680.3 -31467.5 -7.41678 
128 1 11.7115 3.96469 7.46837 6.01226 -123797 -162945 21188.6 -2792.26 17112.7 46567.2 -7.41949 
129 1 10.9031 2.79958 7.46548 6.01642 -110940 -171169 -45035.1 -6639.47 6623.55 2172.58 -7.41492 
130 1 11.5088 1.51781 7.44773 6.01698 -135330 -148263 9738.06 23918 27839.6 33869.4 -7.41817 
131 1 10.7001 0.352791 7.45525 6.0135 -137662 -147091 -15140.6 10238.1 -19020.5 30280 -7.41689 
138 1 14.5353 12.354 7.48538 6.01845 -140795 -145065 -12946.7 41088.6 41031.8 -13213.6 -7.41727 
139 1 13.7269 11.1884 7.48487 6.01587 -139791 -146161 71080.6 38912.3 -44807.4 -16072.2 -7.42267 
140 1 14.333 9.9066 7.49126 6.02485 -130501 -150458 -90525.5 15181.4 13388.6 -2965.62 -7.41269 
141 1 13.5255 8.74074 7.49295 6.01532 -126564 -159783 115797 4256.97 -8338.66 -30205.3 -7.42583 
142 1 14.1327 7.45947 7.49126 6.02485 -132211 -148760 -90525.5 -16425.8 -4125.98 13077.7 -7.41269 
143 1 13.3256 6.29364 7.48487 6.01587 -110984 -174959 71080.6 -22014.7 36322.5 -30768.2 -7.42267 
144 1 13.9326 5.01243 7.46819 6.01553 -141723 -142259 -42316.9 -20163.9 8041.82 20800.2 -7.41534 
145 1 13.1249 3.84722 7.45542 6.0148 -109828 -172859 1111.91 -20351.7 36574.7 -11497.7 -7.4176 
146 1 13.7305 2.56543 7.43349 6.0185 -142910 -139307 -17910.1 -2630.86 18750.1 19307.5 -7.41615 
147 1 12.9218 1.40068 7.42825 6.01956 -126336 -154601 -22843.6 -6797.96 9710.6 11714.5 -7.41561 
148 1 13.5262 0.118103 7.41691 6.02839 -139530 -140254 -20066.8 9836.3 4649.79 14216 -7.41551 
149 2 -6.90299e-08 8.62519 10.9033 6.02169 -142842 -142846 134642 -63.5042 0.00330872 -0.0194717 -7.42705 
150 2 0.199751 6.17707 10.9167 6.0137 -130280 -156396 83837.1 21938 45712 10600.5 -7.42368 
151 2 0.400782 3.72979 10.9523 6.01698 -124436 -159170 9738.06 17359.3 43251.6 7175.2 -7.41817 
152 2 0.604232 1.28277 10.9831 6.02838 -131581 -148186 -20066.8 5175.63 14636.3 -3081.24 -7.41551 
153 2 -9.11857e-08 -2.42774e-08 10.9893 6.03572 -139487 -139480 -22345.5 -33.3118 -0.036241 -0.00978181 -7.41522 
164 2 1.81752 12.4698 10.9247 6.01745 -140747 -143355 19929.7 -47013.7 -41656.4 17636.9 -7.41906 
165 2 1.21199 11.1878 10.9163 6.02013 -130927 -153271 -54223.9 -24769.1 25594.8 13190.3 -7.4148 
166 2 2.02026 10.0222 10.9167 6.0137 -130753 -155925 83837.2 -22487.9 -32036.3 34287.5 -7.42368 
167 2 1.41341 8.7409 10.9091 6.02686 -119247 -161268 -90732.3 5945.33 -846.387 -9741.93 -7.41263 
168 2 2.22089 7.57518 10.9101 6.0133 -112370 -174289 84611.5 12143.2 11696.9 42825 -7.42367 
169 2 1.61328 6.29428 10.9163 6.02013 -126093 -158120 -54223.8 22319.7 -1374.25 -28760.9 -7.4148 
170 2 2.42081 5.12884 10.9247 6.01745 -102092 -182011 19929.8 24452.9 36102.2 27257.1 -7.41906 
171 2 1.81407 3.84765 10.9447 6.0135 -135782 -148960 -15140.6 9351.23 16713 -31612.4 -7.41689 
172 2 2.62247 2.68271 10.9526 6.01446 -112929 -168739 -24049.1 12703 19287.1 -1405.42 -7.41586 
173 2 2.01729 1.40067 10.9717 6.02499 -138623 -142914 -10957.3 -11256.8 18553 -24532.7 -7.41641 
174 2 2.82611 0.235894 10.9665 6.0185 -137954 -144274 -17910.1 280.261 -7345.71 -25891.8 -7.41615 
185 2 3.23044 12.585 10.9447 6.0135 -137653 -147093 -15140.6 -10236.5 19020.6 30280 -7.41689 
186 2 4.03915 11.42 10.9523 6.01698 -135332 -148272 9738.06 -23921.5 -27839.6 33869.3 -7.41817 
187 2 3.43347 10.1382 10.9345 6.01642 -110951 -171179 -45035.1 6635.42 -6623.71 2172.44 -7.41492 
188 2 4.24186 8.97309 10.9316 6.01227 -123788 -162937 21188.6 2799.7 -17112.6 46567.3 -7.41949 
189 2 3.63454 7.69221 10.9173 6.02101 -99819.4 -183965 -16967.5 23167 -21680.2 -31467.3 -7.41678 
190 2 4.44233 6.52684 10.9146 6.01845 -108339 -177530 -12946.7 22533.9 9072.58 42141.4 -7.41727 
191 2 3.83442 5.2462 10.9169 6.01422 -111462 -175753 35027.4 14065.5 -695.882 -50120.1 -7.42043 
192 2 4.64237 4.08083 10.9187 6.02461 -105235 -176598 -56578.3 13619.5 10949 14567.9 -7.41438 
193 2 4.03565 2.79961 10.9338 6.01428 -128832 -157448 40124.4 -16349.9 28978.7 -42908.6 -7.42064 
194 2 4.84422 1.63443 10.9318 6.01553 -124811 -159165 -42316.9 -10052.3 -13992.6 -17364.6 -7.41534 
195 2 4.23899 0.352292 10.9446 6.0148 -139369 -143308 1111.9 -37653.7 28244.6 -25925.7 -7.4176 
206 2 6.05661 12.8197 10.9831 6.02839 -139520 -140245 -20066.8 -9829.5 -4649.72 14216.1 -7.41551 
207 2 5.45215 11.5371 10.9718 6.01956 -126333 -154588 -22843.6 6801.1 -9710.57 11714.6 -7.41561 
208 2 6.26087 10.3724 10.9665 6.0185 -142920 -139308 -17910.1 2624.99 -18750.2 19307.5 -7.41615 
209 2 5.65523 9.09056 10.9446 6.0148 -109822 -172866 1111.89 20351.7 -36574.6 -11497.8 -7.4176 
210 2 6.46299 7.92535 10.9318 6.01554 -141721 -142267 -42316.9 20163.3 -8041.83 20800.1 -7.41534 
211 2 5.856 6.64414 10.9151 6.01588 -110993 -174964 71080.6 22011.6 -36322.6 -30768.2 -7.42267 
212 2 6.66302 5.47832 10.9087 6.02485 -132203 -148751 -90525.5 16432.1 4126 13077.6 -7.41269 
213 2 6.05583 4.19704 10.9071 6.01533 -126561 -159770 115797 -4253.85 8338.66 -30205.3 -7.42583 
214 2 6.8634 3.03119 10.9087 6.02485 -130509 -150460 -90525.5 -15186.9 -13388.6 -2965.59 -7.41269 
215 2 6.25727 1.74937 10.9151 6.01588 -139784 -146168 71080.6 -38912.1 44807.3 -16072.1 -7.42267 
216 2 7.06569 0.583749 10.9146 6.01845 -140795 -145073 -12946.7 -41088.9 -41031.8 -13213.6 -7.41727 
228 2 8.27842 11.7731 10.9831 6.02839 -148548 -131227 -20066.8 4545.12 -9986.62 -11134.9 -7.41551 
229 2 7.67401 10.4904 10.9717 6.02499 -132149 -149399 -10957.4 7394.5 -30522.5 -3801.05 -7.41641 
230 2 8.48169 9.3253 10.9526 6.01446 -165786 -115872 -24049.1 17820.2 -10860.6 -16000.3 -7.41586 
231 2 7.87634 8.043 10.9338 6.01428 -136230 -150030 40124.4 20390.4 -51649.3 -3641.78 -7.42064 
232 2 8.68255 6.87696 10.9187 6.02461 -170494 -111342 -56578.3 24189.7 7141.64 -16766 -7.41438 
233 2 8.07647 5.59476 10.9071 6.01533 -147854 -138491 115797 16391.9 -30327.9 7881.11 -7.42583 
234 2 8.88248 4.42828 10.9087 6.02485 -158730 -122232 -90525.5 -850.386 9262.6 -10112 -7.41269 
235 2 8.27661 3.14598 10.9071 6.01532 -155095 -131248 115797 -12372.1 21989.2 22324.1 -7.42583 
236 2 9.08398 1.97999 10.9187 6.02461 -147015 -134804 -56578.3 -37602.6 -18090.6 2198.14 -7.41438 
237 2 8.47871 0.697606 10.9169 6.01422 -147531 -139677 35027.4 -34804.8 43753.2 24457.4 -7.42043 
249 2 9.6914 11.8909 10.9718 6.01956 -141642 -139279 -22843.6 -15626.5 -5289.85 -14266.9 -7.41561 
250 2 10.4993 10.7258 10.9523 6.01698 -165639 -117969 9738.05 6155.36 -15411.9 -41044.5 -7.41817 
251 2 9.89476 9.44293 10.9447 6.0135 -153683 -131073 -15140.6 1179.54 -35733.5 1332.2 -7.41689 
252 2 10.7009 8.27688 10.9247 6.01745 -183314 -100796 19929.7 22195.3 5554.23 -44894.1 -7.41906 
253 2 10.0958 6.99398 10.9169 6.01422 -171829 -115390 35027.4 20864.1 -43057.3 25662.7 -7.42043 
254 2 10.9009 5.82719 10.9146 6.01845 -179665 -106192 -12946.7 18837.5 31959.2 -28927.8 -7.41727 
255 2 10.2956 4.54427 10.9151 6.01587 -178146 -107795 71080.6 16493.3 -8484.75 46840.3 -7.42267 
256 2 11.1017 3.378 10.9318 6.01553 -159446 -124551 -42316.9 -9591.94 22034.4 -3435.66 -7.41534 
257 2 10.4969 2.09517 10.9338 6.01429 -164345 -121933 40124.4 -4396.57 22670.7 46550.6 -7.42064 
258 2 11.3047 0.929771 10.9526 6.01446 -143780 -137881 -24049.1 -30518.1 -8426.33 17405.8 -7.41586 
270 2 12.517 12.1248 10.9316 6.01226 -150748 -135981 21188.6 -18313.5 -31772.1 -38103.6 -7.41949 
271 2 11.9122 10.8422 10.9345 6.01642 -150458 -131660 -45035.1 -29249.8 1430.41 -6822.46 -7.41492 
272 2 12.7193 9.67626 10.9167 6.0137 -168986 -117685 83837.2 134.696 -13675.7 -44888 -7.42368 
273 2 12.114 8.3935 10.9163 6.02013 -169285 -114910 -54223.9 2966.96 -24220.6 15570.6 -7.4148 
274 2 12.9195 7.22684 10.9101 6.0133 -169377 -117285 84611.4 20648.4 31239.1 -31542.3 -7.42367 
275 2 12.314 5.94407 10.9173 6.02101 -183000 -100801 -16967.4 24849.8 -16411.4 34509.4 -7.41678 
276 2 13.1196 4.77768 10.9316 6.01226 -155552 -131177 21188.6 15590.4 48884.7 -8463.66 -7.41949 
277 2 12.5147 3.49493 10.9446 6.0148 -174838 -107849 1111.9 16936.3 8329.94 37423.4 -7.4176 
278 2 13.3219 2.32953 10.9665 6.0185 -142466 -139752 -17910.1 -2841.62 26095.8 6584.3 -7.41615 
279 2 12.7176 1.04669 10.9717 6.02499 -151534 -129997 -10957.4 3686.93 11969.5 28333.7 -7.41641 
291 2 13.93 12.2393 10.9173 6.02101 -142865 -140922 -16967.4 -48023.8 38091.6 -3041.95 -7.41678 
292 2 14.7381 11.0735 10.9101 6.0133 -148242 -138421 84611.5 -32971.6 -42936 -11282.7 -7.42367 
293 2 14.1323 9.79138 10.9091 6.02686 -145715 -134814 -90732.3 -20999.6 8859.96 4137.94 -7.41263 
294 2 14.3328 7.34328 10.9091 6.02686 -155817 -124701 -90732.3 15388.9 -8013.55 5603.96 -7.41263 
295 2 14.5328 4.89521 10.9345 6.01642 -161774 -120339 -45035.1 22911.7 5193.25 4649.96 -7.41492 
296 2 14.735 2.44753 10.9718 6.01956 -153417 -127523 -22843.6 8842.84 15000.4 2552.43 -7.41561 
1 1 0.604232 24.5928 7.41691 6.02838 -131581 -148187 -20066.8 -5174.96 -14636.3 -3081.23 -7.41551 
2 1 0.400782 22.1458 7.44773 6.01698 -124437 -159170 9738.05 -17359.1 -43251.6 7175.2 -7.41817 
3 1 0.199751 19.6985 7.48332 6.0137 -130279 -156394 83837.1 -21938.8 -45712 10600.5 -7.42368 
4 1 -7.39584e-08 17.2504 7.49675 6.02169 -142843 -142848 134642 64.1501 -0.00627352 -0.0172625 -7.42705 
5 1 2.82611 25.6397 7.43349 6.0185 -137955 -144274 -17910.1 -279.892 7345.7 -25891.8 -7.41615 
6 1 2.01729 24.4749 7.42835 6.02499 -138623 -142912 -10957.3 11256.2 -18553 -24532.7 -7.41641 
7 1 2.62247 23.1929 7.4474 6.01446 -112927 -168738 -24049.1 -12704 -19287.1 -1405.44 -7.41586 
8 1 1.81407 22.0279 7.45525 6.0135 -135784 -148962 -15140.6 -9350.5 -16713 -31612.3 -7.41689 
9 1 2.42081 20.7467 7.47527 6.01745 -102092 -182012 19929.8 -24452.2 -36102.2 27257.1 -7.41906 
10 1 1.61328 19.5813 7.48367 6.02013 -126091 -158120 -54223.8 -22319.9 1374.25 -28760.9 -7.4148 
11 1 2.22089 18.3004 7.48986 6.0133 -112372 -174289 84611.4 -12143 -11696.9 42825 -7.42367 
12 1 1.41341 17.1347 7.49095 6.02686 -119248 -161266 -90732.4 -5945.9 846.383 -9741.91 -7.41263 
13 1 2.02026 15.8533 7.48332 6.0137 -130751 -155923 83837.2 22487.1 32036.3 34287.5 -7.42368 
14 1 1.21199 14.6878 7.48367 6.02013 -130928 -153272 -54223.9 24770.1 -25594.8 13190.3 -7.4148 
15 1 1.81752 13.4057 7.47527 6.01745 -140748 -143357 19929.7 47014.2 41656.4 17636.9 -7.41906 
27 1 4.23899 25.5233 7.45542 6.0148 -139371 -143309 1111.9 37654.5 -28244.6 -25925.7 -7.4176 
28 1 4.84422 24.2411 7.46819 6.01553 -124811 -159166 -42317 10052.7 13992.6 -17364.6 -7.41534 
29 1 4.03565 23.076 7.46622 6.01428 -128831 -157449 40124.4 16349.9 -28978.7 -42908.6 -7.42064 
30 1 4.64237 21.7947 7.4813 6.02461 -105236 -176598 -56578.3 -13619 -10949 14567.9 -7.41438 
31 1 3.83442 20.6294 7.4831 6.01422 -111462 -175752 35027.4 -14066.2 695.888 -50120.1 -7.42043 
32 1 4.44233 19.3487 7.48538 6.01845 -108338 -177529 -12946.7 -22534.9 -9072.58 42141.4 -7.41727 
33 1 3.63454 18.1834 7.48266 6.02101 -99821.4 -183966 -16967.4 -23166.3 21680.2 -31467.4 -7.41678 
34 1 4.24186 16.9025 7.46837 6.01227 -123788 -162939 21188.6 -2799.16 17112.6 46567.3 -7.41949 
35 1 3.43347 15.7374 7.46548 6.01642 -110949 -171179 -45035.1 -6635.51 6623.69 2172.44 -7.41492 
36 1 4.03915 14.4556 7.44773 6.01698 -135334 -148272 9738.06 23921.8 27839.6 33869.3 -7.41817 
37 1 3.23044 13.2906 7.45525 6.0135 -137653 -147092 -15140.6 10235.7 -19020.6 30280 -7.41689 
48 1 7.06569 25.2918 7.48538 6.01845 -140796 -145073 -12946.7 41089.6 41031.8 -13213.6 -7.41727 
49 1 6.25727 24.1262 7.48487 6.01588 -139783 -146166 71080.6 38911.3 -44807.3 -16072.2 -7.42267 
50 1 6.8634 22.8444 7.49126 6.02485 -130508 -150458 -90525.5 15186.2 13388.6 -2965.6 -7.41269 
51 1 6.05583 21.6785 7.49295 6.01533 -126563 -159771 115797 4254.58 -8338.67 -30205.3 -7.42583 
52 1 6.66302 20.3973 7.49126 6.02485 -132203 -148752 -90525.5 -16432 -4126 13077.6 -7.41269 
53 1 5.856 19.2314 7.48487 6.01588 -110993 -174965 71080.6 -22011.4 36322.6 -30768.2 -7.42267 
54 1 6.46299 17.9502 7.46819 6.01554 -141723 -142267 -42316.9 -20162.6 8041.84 20800.1 -7.41534 
55 1 5.65523 16.785 7.45542 6.0148 -109820 -172864 1111.89 -20352.6 36574.6 -11497.8 -7.4176 
56 1 6.26087 15.5032 7.43349 6.0185 -142919 -139307 -17910.1 -2625.81 18750.2 19307.5 -7.41615 
57 1 5.45215 14.3385 7.42825 6.01956 -126335 -154589 -22843.6 -6800.39 9710.6 11714.6 -7.41561 
58 1 6.05661 13.0559 7.41691 6.02839 -139519 -140246 -20066.8 9829.66 4649.72 14216.1 -7.41551 
69 1 8.47871 25.178 7.4831 6.01422 -147532 -139677 35027.4 34805.3 -43753.2 24457.4 -7.42043 
70 1 9.08398 23.8956 7.4813 6.02461 -147014 -134804 -56578.3 37602.3 18090.6 2198.15 -7.41438 
71 1 8.27661 22.7296 7.49295 6.01533 -155096 -131250 115797 12372.5 -21989.2 22324.1 -7.42583 
72 1 8.88248 21.4473 7.49126 6.02485 -158732 -122233 -90525.5 851.38 -9262.59 -10112 -7.41269 
73 1 8.07647 20.2808 7.49295 6.01532 -147853 -138490 115797 -16392.7 30327.9 7881.12 -7.42583 
74 1 8.68255 18.9986 7.4813 6.02461 -170493 -111340 -56578.3 -24190.3 -7141.64 -16766 -7.41438 
75 1 7.87634 17.8326 7.46622 6.01428 -136231 -150030 40124.4 -20389.9 51649.3 -3641.78 -7.42064 
76 1 8.48169 16.5503 7.4474 6.01446 -165785 -115872 -24049.1 -17820.5 10860.6 -16000.3 -7.41586 
77 1 7.67401 15.3851 7.42835 6.02499 -132149 -149400 -10957.4 -7394.3 30522.5 -3801.07 -7.41641 
78 1 8.27842 14.1024 7.41691 6.02839 -148549 -131227 -20066.8 -4544.21 9986.61 -11134.9 -7.41551 
79 1 7.46963 12.9378 7.41074 6.03572 -139481 -139489 -22345.5 33.743 -0.0381736 0.00472062 -7.41522 
90 1 11.3047 24.9458 7.4474 6.01446 -143782 -137883 -24049.1 30519 8426.36 17405.8 -7.41586 
91 1 10.4969 23.7804 7.46622 6.01429 -164344 -121932 40124.4 4395.58 -22670.7 46550.6 -7.42064 
92 1 11.1017 22.4976 7.46819 6.01554 -159446 -124549 -42316.9 9591.44 -22034.4 -3435.67 -7.41534 
93 1 10.2956 21.3313 7.48487 6.01587 -178147 -107795 71080.6 -16493.1 8484.75 46840.3 -7.42267 
94 1 10.9009 20.0484 7.48538 6.01845 -179664 -106193 -12946.7 -18838 -31959.2 -28927.8 -7.41727 
95 1 10.0958 18.8816 7.4831 6.01422 -171829 -115392 35027.4 -20863.6 43057.3 25662.7 -7.42043 
96 1 10.7009 17.5987 7.47527 6.01745 -183315 -100797 19929.7 -22194.3 -5554.23 -44894.1 -7.41906 
97 1 9.89476 16.4326 7.45525 6.0135 -153681 -131071 -15140.6 -1180.12 35733.6 1332.21 -7.41689 
98 1 10.4993 15.1498 7.44773 6.01698 -165639 -117968 9738.06 -6155.78 15411.9 -41044.5 -7.41817 
99 1 9.6914 13.9846 7.42825 6.01956 -141643 -139278 -22843.6 15626.6 5289.84 -14266.9 -7.41561 
111 1 12.7176 24.8289 7.42835 6.02499 -151535 -129997 -10957.4 -3687.04 -11969.5 28333.7 -7.41641 
112 1 13.3219 23.546 7.43349 6.0185 -142464 -139751 -17910.1 2841.2 -26095.9 6584.3 -7.41615 
113 1 12.5147 22.3806 7.45542 6.0148 -174838 -107850 1111.9 -16935.4 -8329.96 37423.4 -7.4176 
114 1 13.1196 21.0979 7.46837 6.01226 -155553 -131179 21188.6 -15589.7 -48884.7 -8463.65 -7.41949 
115 1 12.314 19.9315 7.48266 6.02101 -182999 -100801 -16967.4 -24850.6 16411.4 34509.4 -7.41678 
116 1 12.9195 18.6487 7.48986 6.0133 -169377 -117284 84611.4 -20648.5 -31239.1 -31542.3 -7.42367 
117 1 12.114 17.4821 7.48367 6.02013 -169286 -114908 -54223.9 -2966.98 24220.5 15570.6 -7.4148 
118 1 12.7193 16.1993 7.48332 6.0137 -168985 -117684 83837.2 -135.385 13675.7 -44888 -7.42368 
119 1 11.9122 15.0334 7.46548 6.01642 -150459 -131662 -45035.1 29250.5 -1430.41 -6822.46 -7.41492 
120 1 12.517 13.7508 7.46837 6.01227 -150749 -135983 21188.6 18314.4 31772.1 -38103.6 -7.41949 
132 1 14.735 23.428 7.42825 6.01956 -153415 -127522 -22843.6 -8843.26 -15000.4 2552.43 -7.41561 
133 1 14.5328 20.9804 7.46548 6.01642 -161774 -120338 -45035.1 -22912 -5193.24 4649.94 -7.41492 
134 1 14.3328 18.5323 7.49095 6.02686 -155818 -124702 -90732.3 -15388 8013.54 5603.97 -7.41263 
135 1 14.1323 16.0842 7.49095 6.02686 -145714 -134814 -90732.3 20999 -8859.96 4137.93 -7.41263 
136 1 14.7381 14.802 7.48986 6.0133 -148242 -138420 84611.5 32971.7 42936 -11282.7 -7.42367 
137 1 13.93 13.6363 7.48266 6.02101 -142865 -140920 -16967.4 48023.7 -38091.6 -3041.95 -7.41678 
154 2 0.808793 24.7109 10.9831 6.02838 -148553 -131221 -20066.8 4543.65 -9986.58 -11134.8 -7.41551 
155 2 0.204373 23.4282 10.9717 6.02499 -132138 -149396 -10957.3 7397.33 -30522.4 -3801.04 -7.41641 
156 2 1.01206 22.2631 10.9526 6.01446 -165792 -115883 -24049.1 17814.6 -10860.7 -16000.4 -7.41586 
157 2 0.40671 20.9808 10.9338 6.01429 -136239 -150043 40124.4 20385.8 -51649.4 -3641.96 -7.42064 
158 2 1.21292 19.8147 10.9187 6.02461 -170483 -111335 -56578.2 24197 7141.69 -16766 -7.41438 
159 2 0.606833 18.5325 10.9071 6.01533 -147856 -138478 115797 16393.7 -30327.9 7881.2 -7.42583 
160 2 1.41285 17.3661 10.9087 6.02485 -158736 -122228 -90525.5 -852.881 9262.56 -10112 -7.41269 
161 2 0.806973 16.0838 10.9071 6.01533 -155087 -131249 115797 -12369.4 21989.2 22324.2 -7.42583 
162 2 1.61434 14.9178 10.9187 6.02461 -147020 -134815 -56578.2 -37607 -18090.6 2198.14 -7.41438 
163 2 1.00908 13.6354 10.9169 6.01422 -147537 -139688 35027.4 -34809.1 43753.2 24457.4 -7.42043 
175 2 2.22177 24.8287 10.9718 6.01956 -141651 -139290 -22843.6 -15630.6 -5289.76 -14266.9 -7.41561 
176 2 3.0297 23.6636 10.9523 6.01698 -165629 -117962 9738.07 6162.78 -15412 -41044.5 -7.41817 
177 2 2.42512 22.3807 10.9447 6.0135 -153683 -131059 -15140.6 1181.66 -35733.5 1332.33 -7.41689 
178 2 3.2313 21.2147 10.9247 6.01745 -183320 -100793 19929.7 22191.2 5554.24 -44894 -7.41906 
179 2 2.62613 19.9318 10.9169 6.01422 -171820 -115394 35027.4 20866.3 -43057.3 25662.7 -7.42043 
180 2 3.43125 18.765 10.9146 6.01845 -179669 -106204 -12946.7 18834.4 31959.2 -28927.8 -7.41727 
181 2 2.826 17.4821 10.9151 6.01588 -178155 -107805 71080.6 16488.6 -8484.78 46840.4 -7.42267 
182 2 3.63206 16.3158 10.9318 6.01554 -159434 -124541 -42316.9 -9584.39 22034.4 -3435.65 -7.41534 
183 2 3.02727 15.033 10.9338 6.01428 -164345 -121919 40124.4 -4393.29 22670.7 46550.5 -7.42064 
184 2 3.8351 13.8676 10.9526 6.01446 -143790 -137881 -24049.1 -30522.6 -8426.46 17405.7 -7.41586 
196 2 5.04741 25.0626 10.9316 6.01227 -150757 -135982 21188.6 -18319.2 -31772.1 -38103.6 -7.41949 
197 2 4.44259 23.7799 10.9345 6.01642 -150451 -131668 -45035.1 -29249.2 1430.32 -6822.5 -7.41492 
198 2 5.24963 22.614 10.9167 6.0137 -168987 -117693 83837.1 133.532 -13675.7 -44888 -7.42368 
199 2 4.64437 21.3313 10.9163 6.02013 -169294 -114916 -54223.9 2963.22 -24220.5 15570.6 -7.4148 
200 2 5.44985 20.1646 10.9101 6.0133 -169369 -117275 84611.5 20655.1 31239.1 -31542.4 -7.42367 
201 2 4.84438 18.8819 10.9173 6.02101 -182997 -100788 -16967.4 24853.4 -16411.5 34509.3 -7.41678 
202 2 5.65 17.7155 10.9316 6.01227 -155561 -131179 21188.6 15584.8 48884.7 -8463.64 -7.41949 
203 2 5.04504 16.4327 10.9446 6.0148 -174829 -107855 1111.9 16936.4 8330.05 37423.4 -7.4176 
204 2 5.85229 15.2673 10.9665 6.0185 -142465 -139760 -17910.1 -2842.96 26095.9 6584.35 -7.41615 
205 2 5.24797 13.9845 10.9717 6.02499 -151546 -130004 -10957.4 3683.17 11969.4 28333.8 -7.41641 
217 2 6.46034 25.1771 10.9173 6.02101 -142875 -140925 -16967.4 -48027.3 38091.7 -3041.93 -7.41678 
218 2 7.26852 24.0113 10.9101 6.0133 -148233 -138410 84611.5 -32965.5 -42936 -11282.7 -7.42367 
219 2 6.66272 22.7292 10.9091 6.02686 -145710 -134802 -90732.3 -20995.3 8859.96 4137.97 -7.41263 
220 2 7.46963 21.563 10.9033 6.02169 -142855 -142851 134642 -70.2918 -0.00293501 0.0196262 -7.42705 
221 2 6.86314 20.2811 10.9091 6.02686 -155813 -124711 -90732.3 15387.6 -8013.56 5603.99 -7.41263 
222 2 7.66938 19.1149 10.9167 6.0137 -130275 -156400 83837.2 21939.4 45712 10600.5 -7.42368 
223 2 7.06321 17.833 10.9345 6.01642 -161784 -120341 -45035.1 22909 5193.26 4649.99 -7.41492 
224 2 7.87041 16.6676 10.9523 6.01698 -124431 -159161 9738.06 17364.5 43251.5 7175.06 -7.41817 
225 2 7.26534 15.3853 10.9718 6.01956 -153411 -127511 -22843.6 8846.56 15000.4 2552.27 -7.41561 
226 2 8.07386 14.2205 10.9831 6.02839 -131591 -148190 -20066.8 5168.75 14636.4 -3081.22 -7.41551 
227 2 7.46963 12.9378 10.9893 6.03572 -139483 -139490 -22345.5 -34.366 0.0387936 0.00934556 -7.41522 
238 2 9.28716 25.4076 10.9247 6.01745 -140759 -143362 19929.8 -47020.8 -41656.6 17636.9 -7.41906 
239 2 8.68162 24.1256 10.9163 6.02013 -130924 -153282 -54223.9 -24771.3 25594.8 13190.3 -7.4148 
240 2 9.48989 22.96 10.9167 6.0137 -130745 -155928 83837.1 -22485.2 -32036.2 34287.5 -7.42368 
241 2 8.88304 21.6787 10.9091 6.02686 -119259 -161268 -90732.3 5943.21 -846.43 -9741.93 -7.41263 
242 2 9.69053 20.513 10.9101 6.0133 -112367 -174279 84611.5 12147.7 11696.9 42825 -7.42367 
243 2 9.08291 19.2321 10.9163 6.02013 -126083 -158108 -54223.9 22323.7 -1374.27 -28760.9 -7.4148 
244 2 9.89044 18.0666 10.9247 6.01745 -102102 -182018 19929.7 24445.3 36102.3 27257.2 -7.41906 
245 2 9.2837 16.7854 10.9447 6.0135 -135783 -148973 -15140.5 9349.17 16713 -31612.2 -7.41689 
246 2 10.0921 15.6205 10.9526 6.01446 -112922 -168742 -24049.1 12706.7 19287 -1405.41 -7.41586 
247 2 9.48692 14.3385 10.9717 6.02499 -138632 -142912 -10957.4 -11258.6 18553.1 -24532.7 -7.41641 
248 2 10.2957 13.1737 10.9665 6.0185 -137950 -144264 -17910.1 284.129 -7345.75 -25891.9 -7.41615 
259 2 10.7001 25.5228 10.9447 6.0135 -137662 -147089 -15140.6 -10237.2 19020.5 30280 -7.41689 
260 2 11.5088 24.3578 10.9523 6.01698 -135331 -148263 9738.06 -23918.3 -27839.6 33869.4 -7.41817 
261 2 10.9031 23.076 10.9345 6.01642 -110939 -171169 -45035.1 6639.46 -6623.54 2172.57 -7.41492 
262 2 11.7115 21.9109 10.9316 6.01226 -123797 -162946 21188.6 2791.66 -17112.7 46567.2 -7.41949 
263 2 11.1042 20.63 10.9173 6.02101 -99822.5 -183980 -16967.4 23163.7 -21680.3 -31467.5 -7.41678 
264 2 11.912 19.4646 10.9146 6.01845 -108331 -177531 -12946.7 22539.2 9072.59 42141.3 -7.41727 
265 2 11.3041 18.184 10.9169 6.01422 -111469 -175748 35027.4 14064.7 -695.837 -50120.1 -7.42043 
266 2 12.112 17.0186 10.9187 6.02461 -105233 -176588 -56578.3 13621.7 10948.9 14567.8 -7.41438 
267 2 11.5053 15.7374 10.9338 6.01428 -128822 -157440 40124.4 -16346 28978.5 -42908.7 -7.42064 
268 2 12.3138 14.5722 10.9318 6.01554 -124821 -159175 -42316.9 -10059.8 -13992.5 -17364.5 -7.41534 
269 2 11.7086 13.2901 10.9446 6.0148 -139372 -143323 1111.89 -37657.1 28244.7 -25925.6 -7.4176 
280 2 13.5262 25.7575 10.9831 6.02839 -139529 -140255 -20066.8 -9836.56 -4649.79 14216 -7.41551 
281 2 12.9218 24.4749 10.9718 6.01956 -126338 -154602 -22843.6 6797.24 -9710.63 11714.5 -7.41561 
282 2 13.7305 23.3101 10.9665 6.0185 -142909 -139305 -17910.1 2631.75 -18750.1 19307.6 -7.41615 
283 2 13.1249 22.0283 10.9446 6.0148 -109827 -172857 1111.91 20352.6 -36574.6 -11497.7 -7.4176 
284 2 13.9326 20.8631 10.9318 6.01553 -141725 -142260 -42316.9 20163.2 -8041.83 20800.2 -7.41534 
285 2 13.3256 19.5819 10.9151 6.01587 -110984 -174960 71080.6 22014.5 -36322.5 -30768.2 -7.42267 
286 2 14.1327 18.4161 10.9087 6.02485 -132210 -148761 -90525.5 16425.7 4125.99 13077.7 -7.41269 
287 2 13.5255 17.1348 10.9071 6.01532 -126565 -159783 115797 -4257.68 8338.67 -30205.3 -7.42583 
288 2 14.333 15.969 10.9087 6.02485 -130500 -150457 -90525.5 -15180.6 -13388.6 -2965.63 -7.41269 
289 2 13.7269 14.6872 10.9151 6.01587 -139790 -146159 71080.6 -38911.5 44807.4 -16072.2 -7.42267 
290 2 14.5353 13.5215 10.9146 6.01845 -140797 -145066 -12946.7 -41089.3 -41031.8 -13213.6 -7.41727 
