# LAMMPS data file written by OVITO
8 atoms
2 atom types
0.0 4.2600002 xlo xhi
0.0 2.459512 ylo yhi
0.0 18.3999996 zlo zhi


Masses

1	12
2	12

Atoms 

1 1 1 0 0.0 0.0 7.5 0 0 0
2 1 1 0 1.42 0.0 7.5 0 0 0
3 1 1 0 2.1300001 1.229756 7.5 0 0 0
4 1 1 0 3.55 1.229756 7.5 0 0 0
5 2 2 0 0.71 1.229756 10.8999996 0 0 0
6 2 2 0 2.1300001 1.229756 10.8999996 0 0 0
7 2 2 0 2.84 2.459512 10.8999996 0 0 0
8 2 2 0 4.2600002 2.459512 10.8999996 0 0 0
