(written by TR)

102976	atoms
2	atom types
0	278.634255	xlo xhi
0	482.608687	ylo yhi
0	15.0	zlo zhi


Masses

1	12
2	12

Atoms

1 1 1 0 -0.000 482.609 3.000 0 0 0
2 1 1 0 0.704 481.378 3.000 0 0 0
3 1 1 0 0.693 478.922 3.000 0 0 0
4 1 1 0 0.682 476.466 3.000 0 0 0
5 1 1 0 0.671 474.010 3.000 0 0 0
6 1 1 0 0.660 471.554 3.000 0 0 0
7 1 1 0 0.649 469.098 3.000 0 0 0
8 1 1 0 0.639 466.642 3.000 0 0 0
9 1 1 0 0.628 464.186 3.000 0 0 0
10 1 1 0 0.617 461.730 3.000 0 0 0
11 1 1 0 0.606 459.274 3.000 0 0 0
12 1 1 0 0.595 456.818 3.000 0 0 0
13 1 1 0 0.585 454.362 3.000 0 0 0
14 1 1 0 0.574 451.906 3.000 0 0 0
15 1 1 0 0.563 449.450 3.000 0 0 0
16 1 1 0 0.552 446.994 3.000 0 0 0
17 1 1 0 0.541 444.538 3.000 0 0 0
18 1 1 0 0.530 442.082 3.000 0 0 0
19 1 1 0 0.520 439.626 3.000 0 0 0
20 1 1 0 0.509 437.170 3.000 0 0 0
21 1 1 0 0.498 434.714 3.000 0 0 0
22 1 1 0 0.487 432.258 3.000 0 0 0
23 1 1 0 0.476 429.802 3.000 0 0 0
24 1 1 0 0.465 427.346 3.000 0 0 0
25 1 1 0 0.455 424.890 3.000 0 0 0
26 1 1 0 0.444 422.434 3.000 0 0 0
27 1 1 0 0.433 419.978 3.000 0 0 0
28 1 1 0 0.422 417.522 3.000 0 0 0
29 1 1 0 0.411 415.066 3.000 0 0 0
30 1 1 0 0.400 412.610 3.000 0 0 0
31 1 1 0 0.390 410.154 3.000 0 0 0
32 1 1 0 0.379 407.698 3.000 0 0 0
33 1 1 0 0.368 405.242 3.000 0 0 0
34 1 1 0 0.357 402.786 3.000 0 0 0
35 1 1 0 0.346 400.330 3.000 0 0 0
36 1 1 0 0.336 397.874 3.000 0 0 0
37 1 1 0 0.325 395.418 3.000 0 0 0
38 1 1 0 0.314 392.962 3.000 0 0 0
39 1 1 0 0.303 390.506 3.000 0 0 0
40 1 1 0 0.292 388.050 3.000 0 0 0
41 1 1 0 0.281 385.595 3.000 0 0 0
42 1 1 0 0.271 383.139 3.000 0 0 0
43 1 1 0 0.260 380.683 3.000 0 0 0
44 1 1 0 0.249 378.227 3.000 0 0 0
45 1 1 0 0.238 375.771 3.000 0 0 0
46 1 1 0 0.227 373.315 3.000 0 0 0
47 1 1 0 0.216 370.859 3.000 0 0 0
48 1 1 0 0.206 368.403 3.000 0 0 0
49 1 1 0 0.195 365.947 3.000 0 0 0
50 1 1 0 0.184 363.491 3.000 0 0 0
51 1 1 0 0.173 361.035 3.000 0 0 0
52 1 1 0 0.162 358.579 3.000 0 0 0
53 1 1 0 0.152 356.123 3.000 0 0 0
54 1 1 0 0.141 353.667 3.000 0 0 0
55 1 1 0 0.130 351.211 3.000 0 0 0
56 1 1 0 0.119 348.755 3.000 0 0 0
57 1 1 0 0.108 346.299 3.000 0 0 0
58 1 1 0 0.097 343.843 3.000 0 0 0
59 1 1 0 0.087 341.387 3.000 0 0 0
60 1 1 0 0.076 338.931 3.000 0 0 0
61 1 1 0 0.065 336.475 3.000 0 0 0
62 1 1 0 0.054 334.019 3.000 0 0 0
63 1 1 0 0.043 331.563 3.000 0 0 0
64 1 1 0 0.032 329.107 3.000 0 0 0
65 1 1 0 0.022 326.651 3.000 0 0 0
66 1 1 0 0.011 324.195 3.000 0 0 0
67 1 1 0 -0.000 321.739 3.000 0 0 0
68 1 1 0 2.836 482.596 3.000 0 0 0
69 1 1 0 2.122 481.371 3.000 0 0 0
70 1 1 0 2.825 480.140 3.000 0 0 0
71 1 1 0 2.111 478.915 3.000 0 0 0
72 1 1 0 2.814 477.684 3.000 0 0 0
73 1 1 0 2.100 476.459 3.000 0 0 0
74 1 1 0 2.803 475.228 3.000 0 0 0
75 1 1 0 2.089 474.003 3.000 0 0 0
76 1 1 0 2.793 472.772 3.000 0 0 0
77 1 1 0 2.078 471.547 3.000 0 0 0
78 1 1 0 2.782 470.316 3.000 0 0 0
79 1 1 0 2.067 469.091 3.000 0 0 0
80 1 1 0 2.771 467.860 3.000 0 0 0
81 1 1 0 2.057 466.635 3.000 0 0 0
82 1 1 0 2.760 465.404 3.000 0 0 0
83 1 1 0 2.046 464.179 3.000 0 0 0
84 1 1 0 2.749 462.948 3.000 0 0 0
85 1 1 0 2.035 461.724 3.000 0 0 0
86 1 1 0 2.738 460.492 3.000 0 0 0
87 1 1 0 2.024 459.268 3.000 0 0 0
88 1 1 0 2.728 458.036 3.000 0 0 0
89 1 1 0 2.013 456.812 3.000 0 0 0
90 1 1 0 2.717 455.580 3.000 0 0 0
91 1 1 0 2.002 454.356 3.000 0 0 0
92 1 1 0 2.706 453.124 3.000 0 0 0
93 1 1 0 1.992 451.900 3.000 0 0 0
94 1 1 0 2.695 450.668 3.000 0 0 0
95 1 1 0 1.981 449.444 3.000 0 0 0
96 1 1 0 2.684 448.213 3.000 0 0 0
97 1 1 0 1.970 446.988 3.000 0 0 0
98 1 1 0 2.674 445.757 3.000 0 0 0
99 1 1 0 1.959 444.532 3.000 0 0 0
100 1 1 0 2.663 443.301 3.000 0 0 0
101 1 1 0 1.948 442.076 3.000 0 0 0
102 1 1 0 2.652 440.845 3.000 0 0 0
103 1 1 0 1.938 439.620 3.000 0 0 0
104 1 1 0 2.641 438.389 3.000 0 0 0
105 1 1 0 1.927 437.164 3.000 0 0 0
106 1 1 0 2.630 435.933 3.000 0 0 0
107 1 1 0 1.916 434.708 3.000 0 0 0
108 1 1 0 2.619 433.477 3.000 0 0 0
109 1 1 0 1.905 432.252 3.000 0 0 0
110 1 1 0 2.609 431.021 3.000 0 0 0
111 1 1 0 1.894 429.796 3.000 0 0 0
112 1 1 0 2.598 428.565 3.000 0 0 0
113 1 1 0 1.883 427.340 3.000 0 0 0
114 1 1 0 2.587 426.109 3.000 0 0 0
115 1 1 0 1.873 424.884 3.000 0 0 0
116 1 1 0 2.576 423.653 3.000 0 0 0
117 1 1 0 1.862 422.428 3.000 0 0 0
118 1 1 0 2.565 421.197 3.000 0 0 0
119 1 1 0 1.851 419.972 3.000 0 0 0
120 1 1 0 2.554 418.741 3.000 0 0 0
121 1 1 0 1.840 417.516 3.000 0 0 0
122 1 1 0 2.544 416.285 3.000 0 0 0
123 1 1 0 1.829 415.060 3.000 0 0 0
124 1 1 0 2.533 413.829 3.000 0 0 0
125 1 1 0 1.818 412.604 3.000 0 0 0
126 1 1 0 2.522 411.373 3.000 0 0 0
127 1 1 0 1.808 410.148 3.000 0 0 0
128 1 1 0 2.511 408.917 3.000 0 0 0
129 1 1 0 1.797 407.692 3.000 0 0 0
130 1 1 0 2.500 406.461 3.000 0 0 0
131 1 1 0 1.786 405.236 3.000 0 0 0
132 1 1 0 2.490 404.005 3.000 0 0 0
133 1 1 0 1.775 402.780 3.000 0 0 0
134 1 1 0 2.479 401.549 3.000 0 0 0
135 1 1 0 1.764 400.324 3.000 0 0 0
136 1 1 0 2.468 399.093 3.000 0 0 0
137 1 1 0 1.754 397.868 3.000 0 0 0
138 1 1 0 2.457 396.637 3.000 0 0 0
139 1 1 0 1.743 395.412 3.000 0 0 0
140 1 1 0 2.446 394.181 3.000 0 0 0
141 1 1 0 1.732 392.956 3.000 0 0 0
142 1 1 0 2.435 391.725 3.000 0 0 0
143 1 1 0 1.721 390.500 3.000 0 0 0
144 1 1 0 2.425 389.269 3.000 0 0 0
145 1 1 0 1.710 388.044 3.000 0 0 0
146 1 1 0 2.414 386.813 3.000 0 0 0
147 1 1 0 1.699 385.588 3.000 0 0 0
148 1 1 0 2.403 384.357 3.000 0 0 0
149 1 1 0 1.689 383.132 3.000 0 0 0
150 1 1 0 2.392 381.901 3.000 0 0 0
151 1 1 0 1.678 380.676 3.000 0 0 0
152 1 1 0 2.381 379.445 3.000 0 0 0
153 1 1 0 1.667 378.220 3.000 0 0 0
154 1 1 0 2.370 376.989 3.000 0 0 0
155 1 1 0 1.656 375.764 3.000 0 0 0
156 1 1 0 2.360 374.533 3.000 0 0 0
157 1 1 0 1.645 373.308 3.000 0 0 0
158 1 1 0 2.349 372.077 3.000 0 0 0
159 1 1 0 1.634 370.852 3.000 0 0 0
160 1 1 0 2.338 369.621 3.000 0 0 0
161 1 1 0 1.624 368.396 3.000 0 0 0
162 1 1 0 2.327 367.165 3.000 0 0 0
163 1 1 0 1.613 365.940 3.000 0 0 0
164 1 1 0 2.316 364.709 3.000 0 0 0
165 1 1 0 1.602 363.484 3.000 0 0 0
166 1 1 0 2.306 362.253 3.000 0 0 0
167 1 1 0 1.591 361.028 3.000 0 0 0
168 1 1 0 2.295 359.797 3.000 0 0 0
169 1 1 0 1.580 358.573 3.000 0 0 0
170 1 1 0 2.284 357.341 3.000 0 0 0
171 1 1 0 1.569 356.117 3.000 0 0 0
172 1 1 0 2.273 354.885 3.000 0 0 0
173 1 1 0 1.559 353.661 3.000 0 0 0
174 1 1 0 2.262 352.429 3.000 0 0 0
175 1 1 0 1.548 351.205 3.000 0 0 0
176 1 1 0 2.251 349.973 3.000 0 0 0
177 1 1 0 1.537 348.749 3.000 0 0 0
178 1 1 0 2.241 347.518 3.000 0 0 0
179 1 1 0 1.526 346.293 3.000 0 0 0
180 1 1 0 2.230 345.062 3.000 0 0 0
181 1 1 0 1.515 343.837 3.000 0 0 0
182 1 1 0 2.219 342.606 3.000 0 0 0
183 1 1 0 1.505 341.381 3.000 0 0 0
184 1 1 0 2.208 340.150 3.000 0 0 0
185 1 1 0 1.494 338.925 3.000 0 0 0
186 1 1 0 2.197 337.694 3.000 0 0 0
187 1 1 0 1.483 336.469 3.000 0 0 0
188 1 1 0 2.186 335.238 3.000 0 0 0
189 1 1 0 1.472 334.013 3.000 0 0 0
190 1 1 0 2.176 332.782 3.000 0 0 0
191 1 1 0 1.461 331.557 3.000 0 0 0
192 1 1 0 2.165 330.326 3.000 0 0 0
193 1 1 0 1.450 329.101 3.000 0 0 0
194 1 1 0 2.154 327.870 3.000 0 0 0
195 1 1 0 1.440 326.645 3.000 0 0 0
196 1 1 0 2.143 325.414 3.000 0 0 0
197 1 1 0 1.429 324.189 3.000 0 0 0
198 1 1 0 2.132 322.958 3.000 0 0 0
199 1 1 0 1.418 321.733 3.000 0 0 0
200 1 1 0 2.122 320.502 3.000 0 0 0
201 1 1 0 1.407 319.277 3.000 0 0 0
202 1 1 0 2.111 318.046 3.000 0 0 0
203 1 1 0 1.396 316.821 3.000 0 0 0
204 1 1 0 2.100 315.590 3.000 0 0 0
205 1 1 0 1.385 314.365 3.000 0 0 0
206 1 1 0 2.089 313.134 3.000 0 0 0
207 1 1 0 1.375 311.909 3.000 0 0 0
208 1 1 0 2.078 310.678 3.000 0 0 0
209 1 1 0 1.364 309.453 3.000 0 0 0
210 1 1 0 2.067 308.222 3.000 0 0 0
211 1 1 0 1.353 306.997 3.000 0 0 0
212 1 1 0 2.057 305.766 3.000 0 0 0
213 1 1 0 1.342 304.541 3.000 0 0 0
214 1 1 0 2.046 303.310 3.000 0 0 0
215 1 1 0 1.331 302.085 3.000 0 0 0
216 1 1 0 2.035 300.854 3.000 0 0 0
217 1 1 0 1.321 299.629 3.000 0 0 0
218 1 1 0 2.024 298.398 3.000 0 0 0
219 1 1 0 1.310 297.173 3.000 0 0 0
220 1 1 0 2.013 295.942 3.000 0 0 0
221 1 1 0 1.299 294.717 3.000 0 0 0
222 1 1 0 2.002 293.486 3.000 0 0 0
223 1 1 0 1.288 292.261 3.000 0 0 0
224 1 1 0 1.992 291.030 3.000 0 0 0
225 1 1 0 1.277 289.805 3.000 0 0 0
226 1 1 0 1.981 288.574 3.000 0 0 0
227 1 1 0 1.266 287.349 3.000 0 0 0
228 1 1 0 1.970 286.118 3.000 0 0 0
229 1 1 0 1.256 284.893 3.000 0 0 0
230 1 1 0 1.959 283.662 3.000 0 0 0
231 1 1 0 1.245 282.437 3.000 0 0 0
232 1 1 0 1.948 281.206 3.000 0 0 0
233 1 1 0 1.234 279.981 3.000 0 0 0
234 1 1 0 1.938 278.750 3.000 0 0 0
235 1 1 0 1.223 277.525 3.000 0 0 0
236 1 1 0 1.927 276.294 3.000 0 0 0
237 1 1 0 1.212 275.069 3.000 0 0 0
238 1 1 0 1.916 273.838 3.000 0 0 0
239 1 1 0 1.201 272.613 3.000 0 0 0
240 1 1 0 1.905 271.382 3.000 0 0 0
241 1 1 0 1.191 270.157 3.000 0 0 0
242 1 1 0 1.894 268.926 3.000 0 0 0
243 1 1 0 1.180 267.701 3.000 0 0 0
244 1 1 0 1.883 266.470 3.000 0 0 0
245 1 1 0 1.169 265.245 3.000 0 0 0
246 1 1 0 1.873 264.014 3.000 0 0 0
247 1 1 0 1.158 262.789 3.000 0 0 0
248 1 1 0 1.862 261.558 3.000 0 0 0
249 1 1 0 1.147 260.333 3.000 0 0 0
250 1 1 0 1.851 259.102 3.000 0 0 0
251 1 1 0 1.137 257.877 3.000 0 0 0
252 1 1 0 1.840 256.646 3.000 0 0 0
253 1 1 0 1.126 255.422 3.000 0 0 0
254 1 1 0 1.829 254.190 3.000 0 0 0
255 1 1 0 1.115 252.966 3.000 0 0 0
256 1 1 0 1.818 251.734 3.000 0 0 0
257 1 1 0 1.104 250.510 3.000 0 0 0
258 1 1 0 1.808 249.278 3.000 0 0 0
259 1 1 0 1.093 248.054 3.000 0 0 0
260 1 1 0 1.797 246.822 3.000 0 0 0
261 1 1 0 1.082 245.598 3.000 0 0 0
262 1 1 0 1.786 244.367 3.000 0 0 0
263 1 1 0 1.072 243.142 3.000 0 0 0
264 1 1 0 1.775 241.911 3.000 0 0 0
265 1 1 0 1.061 240.686 3.000 0 0 0
266 1 1 0 1.764 239.455 3.000 0 0 0
267 1 1 0 1.050 238.230 3.000 0 0 0
268 1 1 0 1.754 236.999 3.000 0 0 0
269 1 1 0 1.039 235.774 3.000 0 0 0
270 1 1 0 1.743 234.543 3.000 0 0 0
271 1 1 0 1.028 233.318 3.000 0 0 0
272 1 1 0 1.732 232.087 3.000 0 0 0
273 1 1 0 1.017 230.862 3.000 0 0 0
274 1 1 0 1.721 229.631 3.000 0 0 0
275 1 1 0 1.007 228.406 3.000 0 0 0
276 1 1 0 1.710 227.175 3.000 0 0 0
277 1 1 0 0.996 225.950 3.000 0 0 0
278 1 1 0 1.699 224.719 3.000 0 0 0
279 1 1 0 0.985 223.494 3.000 0 0 0
280 1 1 0 1.689 222.263 3.000 0 0 0
281 1 1 0 0.974 221.038 3.000 0 0 0
282 1 1 0 1.678 219.807 3.000 0 0 0
283 1 1 0 0.963 218.582 3.000 0 0 0
284 1 1 0 1.667 217.351 3.000 0 0 0
285 1 1 0 0.953 216.126 3.000 0 0 0
286 1 1 0 1.656 214.895 3.000 0 0 0
287 1 1 0 0.942 213.670 3.000 0 0 0
288 1 1 0 1.645 212.439 3.000 0 0 0
289 1 1 0 0.931 211.214 3.000 0 0 0
290 1 1 0 1.634 209.983 3.000 0 0 0
291 1 1 0 0.920 208.758 3.000 0 0 0
292 1 1 0 1.624 207.527 3.000 0 0 0
293 1 1 0 0.909 206.302 3.000 0 0 0
294 1 1 0 1.613 205.071 3.000 0 0 0
295 1 1 0 0.898 203.846 3.000 0 0 0
296 1 1 0 1.602 202.615 3.000 0 0 0
297 1 1 0 0.888 201.390 3.000 0 0 0
298 1 1 0 1.591 200.159 3.000 0 0 0
299 1 1 0 0.877 198.934 3.000 0 0 0
300 1 1 0 1.580 197.703 3.000 0 0 0
301 1 1 0 0.866 196.478 3.000 0 0 0
302 1 1 0 1.569 195.247 3.000 0 0 0
303 1 1 0 0.855 194.022 3.000 0 0 0
304 1 1 0 1.559 192.791 3.000 0 0 0
305 1 1 0 0.844 191.566 3.000 0 0 0
306 1 1 0 1.548 190.335 3.000 0 0 0
307 1 1 0 0.833 189.110 3.000 0 0 0
308 1 1 0 1.537 187.879 3.000 0 0 0
309 1 1 0 0.823 186.654 3.000 0 0 0
310 1 1 0 1.526 185.423 3.000 0 0 0
311 1 1 0 0.812 184.198 3.000 0 0 0
312 1 1 0 1.515 182.967 3.000 0 0 0
313 1 1 0 0.801 181.742 3.000 0 0 0
314 1 1 0 1.505 180.511 3.000 0 0 0
315 1 1 0 0.790 179.286 3.000 0 0 0
316 1 1 0 1.494 178.055 3.000 0 0 0
317 1 1 0 0.779 176.830 3.000 0 0 0
318 1 1 0 1.483 175.599 3.000 0 0 0
319 1 1 0 0.769 174.374 3.000 0 0 0
320 1 1 0 1.472 173.143 3.000 0 0 0
321 1 1 0 0.758 171.918 3.000 0 0 0
322 1 1 0 1.461 170.687 3.000 0 0 0
323 1 1 0 0.747 169.462 3.000 0 0 0
324 1 1 0 1.450 168.231 3.000 0 0 0
325 1 1 0 0.736 167.006 3.000 0 0 0
326 1 1 0 1.440 165.775 3.000 0 0 0
327 1 1 0 0.725 164.550 3.000 0 0 0
328 1 1 0 1.429 163.319 3.000 0 0 0
329 1 1 0 0.714 162.094 3.000 0 0 0
330 1 1 0 1.418 160.863 3.000 0 0 0
331 1 1 0 0.704 159.638 3.000 0 0 0
332 1 1 0 1.407 158.407 3.000 0 0 0
333 1 1 0 0.693 157.182 3.000 0 0 0
334 1 1 0 1.396 155.951 3.000 0 0 0
335 1 1 0 0.682 154.726 3.000 0 0 0
336 1 1 0 1.385 153.495 3.000 0 0 0
337 1 1 0 0.671 152.271 3.000 0 0 0
338 1 1 0 1.375 151.039 3.000 0 0 0
339 1 1 0 0.660 149.815 3.000 0 0 0
340 1 1 0 1.364 148.583 3.000 0 0 0
341 1 1 0 0.649 147.359 3.000 0 0 0
342 1 1 0 1.353 146.127 3.000 0 0 0
343 1 1 0 0.639 144.903 3.000 0 0 0
344 1 1 0 1.342 143.671 3.000 0 0 0
345 1 1 0 0.628 142.447 3.000 0 0 0
346 1 1 0 1.331 141.216 3.000 0 0 0
347 1 1 0 0.617 139.991 3.000 0 0 0
348 1 1 0 1.321 138.760 3.000 0 0 0
349 1 1 0 0.606 137.535 3.000 0 0 0
350 1 1 0 1.310 136.304 3.000 0 0 0
351 1 1 0 0.595 135.079 3.000 0 0 0
352 1 1 0 1.299 133.848 3.000 0 0 0
353 1 1 0 0.585 132.623 3.000 0 0 0
354 1 1 0 1.288 131.392 3.000 0 0 0
355 1 1 0 0.574 130.167 3.000 0 0 0
356 1 1 0 1.277 128.936 3.000 0 0 0
357 1 1 0 0.563 127.711 3.000 0 0 0
358 1 1 0 1.266 126.480 3.000 0 0 0
359 1 1 0 0.552 125.255 3.000 0 0 0
360 1 1 0 1.256 124.024 3.000 0 0 0
361 1 1 0 0.541 122.799 3.000 0 0 0
362 1 1 0 1.245 121.568 3.000 0 0 0
363 1 1 0 0.530 120.343 3.000 0 0 0
364 1 1 0 1.234 119.112 3.000 0 0 0
365 1 1 0 0.520 117.887 3.000 0 0 0
366 1 1 0 1.223 116.656 3.000 0 0 0
367 1 1 0 0.509 115.431 3.000 0 0 0
368 1 1 0 1.212 114.200 3.000 0 0 0
369 1 1 0 0.498 112.975 3.000 0 0 0
370 1 1 0 1.201 111.744 3.000 0 0 0
371 1 1 0 0.487 110.519 3.000 0 0 0
372 1 1 0 1.191 109.288 3.000 0 0 0
373 1 1 0 0.476 108.063 3.000 0 0 0
374 1 1 0 1.180 106.832 3.000 0 0 0
375 1 1 0 0.465 105.607 3.000 0 0 0
376 1 1 0 1.169 104.376 3.000 0 0 0
377 1 1 0 0.455 103.151 3.000 0 0 0
378 1 1 0 1.158 101.920 3.000 0 0 0
379 1 1 0 0.444 100.695 3.000 0 0 0
380 1 1 0 1.147 99.464 3.000 0 0 0
381 1 1 0 0.433 98.239 3.000 0 0 0
382 1 1 0 1.137 97.008 3.000 0 0 0
383 1 1 0 0.422 95.783 3.000 0 0 0
384 1 1 0 1.126 94.552 3.000 0 0 0
385 1 1 0 0.411 93.327 3.000 0 0 0
386 1 1 0 1.115 92.096 3.000 0 0 0
387 1 1 0 0.400 90.871 3.000 0 0 0
388 1 1 0 1.104 89.640 3.000 0 0 0
389 1 1 0 0.390 88.415 3.000 0 0 0
390 1 1 0 1.093 87.184 3.000 0 0 0
391 1 1 0 0.379 85.959 3.000 0 0 0
392 1 1 0 1.082 84.728 3.000 0 0 0
393 1 1 0 0.368 83.503 3.000 0 0 0
394 1 1 0 1.072 82.272 3.000 0 0 0
395 1 1 0 0.357 81.047 3.000 0 0 0
396 1 1 0 1.061 79.816 3.000 0 0 0
397 1 1 0 0.346 78.591 3.000 0 0 0
398 1 1 0 1.050 77.360 3.000 0 0 0
399 1 1 0 0.336 76.135 3.000 0 0 0
400 1 1 0 1.039 74.904 3.000 0 0 0
401 1 1 0 0.325 73.679 3.000 0 0 0
402 1 1 0 1.028 72.448 3.000 0 0 0
403 1 1 0 0.314 71.223 3.000 0 0 0
404 1 1 0 1.017 69.992 3.000 0 0 0
405 1 1 0 0.303 68.767 3.000 0 0 0
406 1 1 0 1.007 67.536 3.000 0 0 0
407 1 1 0 0.292 66.311 3.000 0 0 0
408 1 1 0 0.996 65.080 3.000 0 0 0
409 1 1 0 0.281 63.855 3.000 0 0 0
410 1 1 0 0.985 62.624 3.000 0 0 0
411 1 1 0 0.271 61.399 3.000 0 0 0
412 1 1 0 0.974 60.168 3.000 0 0 0
413 1 1 0 0.260 58.943 3.000 0 0 0
414 1 1 0 0.963 57.712 3.000 0 0 0
415 1 1 0 0.249 56.487 3.000 0 0 0
416 1 1 0 0.953 55.256 3.000 0 0 0
417 1 1 0 0.238 54.031 3.000 0 0 0
418 1 1 0 0.942 52.800 3.000 0 0 0
419 1 1 0 0.227 51.575 3.000 0 0 0
420 1 1 0 0.931 50.344 3.000 0 0 0
421 1 1 0 0.216 49.120 3.000 0 0 0
422 1 1 0 0.920 47.888 3.000 0 0 0
423 1 1 0 0.206 46.664 3.000 0 0 0
424 1 1 0 0.909 45.432 3.000 0 0 0
425 1 1 0 0.195 44.208 3.000 0 0 0
426 1 1 0 0.898 42.976 3.000 0 0 0
427 1 1 0 0.184 41.752 3.000 0 0 0
428 1 1 0 0.888 40.520 3.000 0 0 0
429 1 1 0 0.173 39.296 3.000 0 0 0
430 1 1 0 0.877 38.065 3.000 0 0 0
431 1 1 0 0.162 36.840 3.000 0 0 0
432 1 1 0 0.866 35.609 3.000 0 0 0
433 1 1 0 0.152 34.384 3.000 0 0 0
434 1 1 0 0.855 33.153 3.000 0 0 0
435 1 1 0 0.141 31.928 3.000 0 0 0
436 1 1 0 0.844 30.697 3.000 0 0 0
437 1 1 0 0.130 29.472 3.000 0 0 0
438 1 1 0 0.833 28.241 3.000 0 0 0
439 1 1 0 0.119 27.016 3.000 0 0 0
440 1 1 0 0.823 25.785 3.000 0 0 0
441 1 1 0 0.108 24.560 3.000 0 0 0
442 1 1 0 0.812 23.329 3.000 0 0 0
443 1 1 0 0.097 22.104 3.000 0 0 0
444 1 1 0 0.801 20.873 3.000 0 0 0
445 1 1 0 0.087 19.648 3.000 0 0 0
446 1 1 0 0.790 18.417 3.000 0 0 0
447 1 1 0 0.076 17.192 3.000 0 0 0
448 1 1 0 0.779 15.961 3.000 0 0 0
449 1 1 0 0.065 14.736 3.000 0 0 0
450 1 1 0 0.769 13.505 3.000 0 0 0
451 1 1 0 0.054 12.280 3.000 0 0 0
452 1 1 0 0.758 11.049 3.000 0 0 0
453 1 1 0 0.043 9.824 3.000 0 0 0
454 1 1 0 0.747 8.593 3.000 0 0 0
455 1 1 0 0.032 7.368 3.000 0 0 0
456 1 1 0 0.736 6.137 3.000 0 0 0
457 1 1 0 0.022 4.912 3.000 0 0 0
458 1 1 0 0.725 3.681 3.000 0 0 0
459 1 1 0 0.011 2.456 3.000 0 0 0
460 1 1 0 0.714 1.225 3.000 0 0 0
461 1 1 0 0.000 0.000 3.000 0 0 0
462 1 1 0 4.254 482.590 3.000 0 0 0
463 1 1 0 4.957 481.359 3.000 0 0 0
464 1 1 0 4.243 480.134 3.000 0 0 0
465 1 1 0 4.947 478.903 3.000 0 0 0
466 1 1 0 4.232 477.678 3.000 0 0 0
467 1 1 0 4.936 476.447 3.000 0 0 0
468 1 1 0 4.221 475.222 3.000 0 0 0
469 1 1 0 4.925 473.991 3.000 0 0 0
470 1 1 0 4.211 472.766 3.000 0 0 0
471 1 1 0 4.914 471.535 3.000 0 0 0
472 1 1 0 4.200 470.310 3.000 0 0 0
473 1 1 0 4.903 469.079 3.000 0 0 0
474 1 1 0 4.189 467.854 3.000 0 0 0
475 1 1 0 4.892 466.623 3.000 0 0 0
476 1 1 0 4.178 465.398 3.000 0 0 0
477 1 1 0 4.882 464.167 3.000 0 0 0
478 1 1 0 4.167 462.942 3.000 0 0 0
479 1 1 0 4.871 461.711 3.000 0 0 0
480 1 1 0 4.156 460.486 3.000 0 0 0
481 1 1 0 4.860 459.255 3.000 0 0 0
482 1 1 0 4.146 458.030 3.000 0 0 0
483 1 1 0 4.849 456.799 3.000 0 0 0
484 1 1 0 4.135 455.574 3.000 0 0 0
485 1 1 0 4.838 454.343 3.000 0 0 0
486 1 1 0 4.124 453.118 3.000 0 0 0
487 1 1 0 4.828 451.887 3.000 0 0 0
488 1 1 0 4.113 450.662 3.000 0 0 0
489 1 1 0 4.817 449.431 3.000 0 0 0
490 1 1 0 4.102 448.206 3.000 0 0 0
491 1 1 0 4.806 446.975 3.000 0 0 0
492 1 1 0 4.092 445.750 3.000 0 0 0
493 1 1 0 4.795 444.519 3.000 0 0 0
494 1 1 0 4.081 443.294 3.000 0 0 0
495 1 1 0 4.784 442.063 3.000 0 0 0
496 1 1 0 4.070 440.838 3.000 0 0 0
497 1 1 0 4.773 439.607 3.000 0 0 0
498 1 1 0 4.059 438.382 3.000 0 0 0
499 1 1 0 4.763 437.151 3.000 0 0 0
500 1 1 0 4.048 435.926 3.000 0 0 0
501 1 1 0 4.752 434.695 3.000 0 0 0
502 1 1 0 4.037 433.470 3.000 0 0 0
503 1 1 0 4.741 432.239 3.000 0 0 0
504 1 1 0 4.027 431.014 3.000 0 0 0
505 1 1 0 4.730 429.783 3.000 0 0 0
506 1 1 0 4.016 428.558 3.000 0 0 0
507 1 1 0 4.719 427.327 3.000 0 0 0
508 1 1 0 4.005 426.102 3.000 0 0 0
509 1 1 0 4.708 424.871 3.000 0 0 0
510 1 1 0 3.994 423.647 3.000 0 0 0
511 1 1 0 4.698 422.415 3.000 0 0 0
512 1 1 0 3.983 421.191 3.000 0 0 0
513 1 1 0 4.687 419.959 3.000 0 0 0
514 1 1 0 3.972 418.735 3.000 0 0 0
515 1 1 0 4.676 417.503 3.000 0 0 0
516 1 1 0 3.962 416.279 3.000 0 0 0
517 1 1 0 4.665 415.047 3.000 0 0 0
518 1 1 0 3.951 413.823 3.000 0 0 0
519 1 1 0 4.654 412.591 3.000 0 0 0
520 1 1 0 3.940 411.367 3.000 0 0 0
521 1 1 0 4.644 410.136 3.000 0 0 0
522 1 1 0 3.929 408.911 3.000 0 0 0
523 1 1 0 4.633 407.680 3.000 0 0 0
524 1 1 0 3.918 406.455 3.000 0 0 0
525 1 1 0 4.622 405.224 3.000 0 0 0
526 1 1 0 3.908 403.999 3.000 0 0 0
527 1 1 0 4.611 402.768 3.000 0 0 0
528 1 1 0 3.897 401.543 3.000 0 0 0
529 1 1 0 4.600 400.312 3.000 0 0 0
530 1 1 0 3.886 399.087 3.000 0 0 0
531 1 1 0 4.589 397.856 3.000 0 0 0
532 1 1 0 3.875 396.631 3.000 0 0 0
533 1 1 0 4.579 395.400 3.000 0 0 0
534 1 1 0 3.864 394.175 3.000 0 0 0
535 1 1 0 4.568 392.944 3.000 0 0 0
536 1 1 0 3.853 391.719 3.000 0 0 0
537 1 1 0 4.557 390.488 3.000 0 0 0
538 1 1 0 3.843 389.263 3.000 0 0 0
539 1 1 0 4.546 388.032 3.000 0 0 0
540 1 1 0 3.832 386.807 3.000 0 0 0
541 1 1 0 4.535 385.576 3.000 0 0 0
542 1 1 0 3.821 384.351 3.000 0 0 0
543 1 1 0 4.524 383.120 3.000 0 0 0
544 1 1 0 3.810 381.895 3.000 0 0 0
545 1 1 0 4.514 380.664 3.000 0 0 0
546 1 1 0 3.799 379.439 3.000 0 0 0
547 1 1 0 4.503 378.208 3.000 0 0 0
548 1 1 0 3.788 376.983 3.000 0 0 0
549 1 1 0 4.492 375.752 3.000 0 0 0
550 1 1 0 3.778 374.527 3.000 0 0 0
551 1 1 0 4.481 373.296 3.000 0 0 0
552 1 1 0 3.767 372.071 3.000 0 0 0
553 1 1 0 4.470 370.840 3.000 0 0 0
554 1 1 0 3.756 369.615 3.000 0 0 0
555 1 1 0 4.460 368.384 3.000 0 0 0
556 1 1 0 3.745 367.159 3.000 0 0 0
557 1 1 0 4.449 365.928 3.000 0 0 0
558 1 1 0 3.734 364.703 3.000 0 0 0
559 1 1 0 4.438 363.472 3.000 0 0 0
560 1 1 0 3.723 362.247 3.000 0 0 0
561 1 1 0 4.427 361.016 3.000 0 0 0
562 1 1 0 3.713 359.791 3.000 0 0 0
563 1 1 0 4.416 358.560 3.000 0 0 0
564 1 1 0 3.702 357.335 3.000 0 0 0
565 1 1 0 4.405 356.104 3.000 0 0 0
566 1 1 0 3.691 354.879 3.000 0 0 0
567 1 1 0 4.395 353.648 3.000 0 0 0
568 1 1 0 3.680 352.423 3.000 0 0 0
569 1 1 0 4.384 351.192 3.000 0 0 0
570 1 1 0 3.669 349.967 3.000 0 0 0
571 1 1 0 4.373 348.736 3.000 0 0 0
572 1 1 0 3.659 347.511 3.000 0 0 0
573 1 1 0 4.362 346.280 3.000 0 0 0
574 1 1 0 3.648 345.055 3.000 0 0 0
575 1 1 0 4.351 343.824 3.000 0 0 0
576 1 1 0 3.637 342.599 3.000 0 0 0
577 1 1 0 4.340 341.368 3.000 0 0 0
578 1 1 0 3.626 340.143 3.000 0 0 0
579 1 1 0 4.330 338.912 3.000 0 0 0
580 1 1 0 3.615 337.687 3.000 0 0 0
581 1 1 0 4.319 336.456 3.000 0 0 0
582 1 1 0 3.604 335.231 3.000 0 0 0
583 1 1 0 4.308 334.000 3.000 0 0 0
584 1 1 0 3.594 332.775 3.000 0 0 0
585 1 1 0 4.297 331.544 3.000 0 0 0
586 1 1 0 3.583 330.319 3.000 0 0 0
587 1 1 0 4.286 329.088 3.000 0 0 0
588 1 1 0 3.572 327.863 3.000 0 0 0
589 1 1 0 4.276 326.632 3.000 0 0 0
590 1 1 0 3.561 325.407 3.000 0 0 0
591 1 1 0 4.265 324.176 3.000 0 0 0
592 1 1 0 3.550 322.951 3.000 0 0 0
593 1 1 0 4.254 321.720 3.000 0 0 0
594 1 1 0 3.539 320.496 3.000 0 0 0
595 1 1 0 4.243 319.264 3.000 0 0 0
596 1 1 0 3.529 318.040 3.000 0 0 0
597 1 1 0 4.232 316.808 3.000 0 0 0
598 1 1 0 3.518 315.584 3.000 0 0 0
599 1 1 0 4.221 314.352 3.000 0 0 0
600 1 1 0 3.507 313.128 3.000 0 0 0
601 1 1 0 4.211 311.896 3.000 0 0 0
602 1 1 0 3.496 310.672 3.000 0 0 0
603 1 1 0 4.200 309.440 3.000 0 0 0
604 1 1 0 3.485 308.216 3.000 0 0 0
605 1 1 0 4.189 306.985 3.000 0 0 0
606 1 1 0 3.475 305.760 3.000 0 0 0
607 1 1 0 4.178 304.529 3.000 0 0 0
608 1 1 0 3.464 303.304 3.000 0 0 0
609 1 1 0 4.167 302.073 3.000 0 0 0
610 1 1 0 3.453 300.848 3.000 0 0 0
611 1 1 0 4.156 299.617 3.000 0 0 0
612 1 1 0 3.442 298.392 3.000 0 0 0
613 1 1 0 4.146 297.161 3.000 0 0 0
614 1 1 0 3.431 295.936 3.000 0 0 0
615 1 1 0 4.135 294.705 3.000 0 0 0
616 1 1 0 3.420 293.480 3.000 0 0 0
617 1 1 0 4.124 292.249 3.000 0 0 0
618 1 1 0 3.410 291.024 3.000 0 0 0
619 1 1 0 4.113 289.793 3.000 0 0 0
620 1 1 0 3.399 288.568 3.000 0 0 0
621 1 1 0 4.102 287.337 3.000 0 0 0
622 1 1 0 3.388 286.112 3.000 0 0 0
623 1 1 0 4.092 284.881 3.000 0 0 0
624 1 1 0 3.377 283.656 3.000 0 0 0
625 1 1 0 4.081 282.425 3.000 0 0 0
626 1 1 0 3.366 281.200 3.000 0 0 0
627 1 1 0 4.070 279.969 3.000 0 0 0
628 1 1 0 3.355 278.744 3.000 0 0 0
629 1 1 0 4.059 277.513 3.000 0 0 0
630 1 1 0 3.345 276.288 3.000 0 0 0
631 1 1 0 4.048 275.057 3.000 0 0 0
632 1 1 0 3.334 273.832 3.000 0 0 0
633 1 1 0 4.037 272.601 3.000 0 0 0
634 1 1 0 3.323 271.376 3.000 0 0 0
635 1 1 0 4.027 270.145 3.000 0 0 0
636 1 1 0 3.312 268.920 3.000 0 0 0
637 1 1 0 4.016 267.689 3.000 0 0 0
638 1 1 0 3.301 266.464 3.000 0 0 0
639 1 1 0 4.005 265.233 3.000 0 0 0
640 1 1 0 3.291 264.008 3.000 0 0 0
641 1 1 0 3.994 262.777 3.000 0 0 0
642 1 1 0 3.280 261.552 3.000 0 0 0
643 1 1 0 3.983 260.321 3.000 0 0 0
644 1 1 0 3.269 259.096 3.000 0 0 0
645 1 1 0 3.972 257.865 3.000 0 0 0
646 1 1 0 3.258 256.640 3.000 0 0 0
647 1 1 0 3.962 255.409 3.000 0 0 0
648 1 1 0 3.247 254.184 3.000 0 0 0
649 1 1 0 3.951 252.953 3.000 0 0 0
650 1 1 0 3.236 251.728 3.000 0 0 0
651 1 1 0 3.940 250.497 3.000 0 0 0
652 1 1 0 3.226 249.272 3.000 0 0 0
653 1 1 0 3.929 248.041 3.000 0 0 0
654 1 1 0 3.215 246.816 3.000 0 0 0
655 1 1 0 3.918 245.585 3.000 0 0 0
656 1 1 0 3.204 244.360 3.000 0 0 0
657 1 1 0 3.908 243.129 3.000 0 0 0
658 1 1 0 3.193 241.904 3.000 0 0 0
659 1 1 0 3.897 240.673 3.000 0 0 0
660 1 1 0 3.182 239.448 3.000 0 0 0
661 1 1 0 3.886 238.217 3.000 0 0 0
662 1 1 0 3.171 236.992 3.000 0 0 0
663 1 1 0 3.875 235.761 3.000 0 0 0
664 1 1 0 3.161 234.536 3.000 0 0 0
665 1 1 0 3.864 233.305 3.000 0 0 0
666 1 1 0 3.150 232.080 3.000 0 0 0
667 1 1 0 3.853 230.849 3.000 0 0 0
668 1 1 0 3.139 229.624 3.000 0 0 0
669 1 1 0 3.843 228.393 3.000 0 0 0
670 1 1 0 3.128 227.168 3.000 0 0 0
671 1 1 0 3.832 225.937 3.000 0 0 0
672 1 1 0 3.117 224.712 3.000 0 0 0
673 1 1 0 3.821 223.481 3.000 0 0 0
674 1 1 0 3.107 222.256 3.000 0 0 0
675 1 1 0 3.810 221.025 3.000 0 0 0
676 1 1 0 3.096 219.800 3.000 0 0 0
677 1 1 0 3.799 218.569 3.000 0 0 0
678 1 1 0 3.085 217.345 3.000 0 0 0
679 1 1 0 3.788 216.113 3.000 0 0 0
680 1 1 0 3.074 214.889 3.000 0 0 0
681 1 1 0 3.778 213.657 3.000 0 0 0
682 1 1 0 3.063 212.433 3.000 0 0 0
683 1 1 0 3.767 211.201 3.000 0 0 0
684 1 1 0 3.052 209.977 3.000 0 0 0
685 1 1 0 3.756 208.745 3.000 0 0 0
686 1 1 0 3.042 207.521 3.000 0 0 0
687 1 1 0 3.745 206.289 3.000 0 0 0
688 1 1 0 3.031 205.065 3.000 0 0 0
689 1 1 0 3.734 203.834 3.000 0 0 0
690 1 1 0 3.020 202.609 3.000 0 0 0
691 1 1 0 3.723 201.378 3.000 0 0 0
692 1 1 0 3.009 200.153 3.000 0 0 0
693 1 1 0 3.713 198.922 3.000 0 0 0
694 1 1 0 2.998 197.697 3.000 0 0 0
695 1 1 0 3.702 196.466 3.000 0 0 0
696 1 1 0 2.987 195.241 3.000 0 0 0
697 1 1 0 3.691 194.010 3.000 0 0 0
698 1 1 0 2.977 192.785 3.000 0 0 0
699 1 1 0 3.680 191.554 3.000 0 0 0
700 1 1 0 2.966 190.329 3.000 0 0 0
701 1 1 0 3.669 189.098 3.000 0 0 0
702 1 1 0 2.955 187.873 3.000 0 0 0
703 1 1 0 3.659 186.642 3.000 0 0 0
704 1 1 0 2.944 185.417 3.000 0 0 0
705 1 1 0 3.648 184.186 3.000 0 0 0
706 1 1 0 2.933 182.961 3.000 0 0 0
707 1 1 0 3.637 181.730 3.000 0 0 0
708 1 1 0 2.923 180.505 3.000 0 0 0
709 1 1 0 3.626 179.274 3.000 0 0 0
710 1 1 0 2.912 178.049 3.000 0 0 0
711 1 1 0 3.615 176.818 3.000 0 0 0
712 1 1 0 2.901 175.593 3.000 0 0 0
713 1 1 0 3.604 174.362 3.000 0 0 0
714 1 1 0 2.890 173.137 3.000 0 0 0
715 1 1 0 3.594 171.906 3.000 0 0 0
716 1 1 0 2.879 170.681 3.000 0 0 0
717 1 1 0 3.583 169.450 3.000 0 0 0
718 1 1 0 2.868 168.225 3.000 0 0 0
719 1 1 0 3.572 166.994 3.000 0 0 0
720 1 1 0 2.858 165.769 3.000 0 0 0
721 1 1 0 3.561 164.538 3.000 0 0 0
722 1 1 0 2.847 163.313 3.000 0 0 0
723 1 1 0 3.550 162.082 3.000 0 0 0
724 1 1 0 2.836 160.857 3.000 0 0 0
725 1 1 0 3.539 159.626 3.000 0 0 0
726 1 1 0 2.825 158.401 3.000 0 0 0
727 1 1 0 3.529 157.170 3.000 0 0 0
728 1 1 0 2.814 155.945 3.000 0 0 0
729 1 1 0 3.518 154.714 3.000 0 0 0
730 1 1 0 2.803 153.489 3.000 0 0 0
731 1 1 0 3.507 152.258 3.000 0 0 0
732 1 1 0 2.793 151.033 3.000 0 0 0
733 1 1 0 3.496 149.802 3.000 0 0 0
734 1 1 0 2.782 148.577 3.000 0 0 0
735 1 1 0 3.485 147.346 3.000 0 0 0
736 1 1 0 2.771 146.121 3.000 0 0 0
737 1 1 0 3.475 144.890 3.000 0 0 0
738 1 1 0 2.760 143.665 3.000 0 0 0
739 1 1 0 3.464 142.434 3.000 0 0 0
740 1 1 0 2.749 141.209 3.000 0 0 0
741 1 1 0 3.453 139.978 3.000 0 0 0
742 1 1 0 2.738 138.753 3.000 0 0 0
743 1 1 0 3.442 137.522 3.000 0 0 0
744 1 1 0 2.728 136.297 3.000 0 0 0
745 1 1 0 3.431 135.066 3.000 0 0 0
746 1 1 0 2.717 133.841 3.000 0 0 0
747 1 1 0 3.420 132.610 3.000 0 0 0
748 1 1 0 2.706 131.385 3.000 0 0 0
749 1 1 0 3.410 130.154 3.000 0 0 0
750 1 1 0 2.695 128.929 3.000 0 0 0
751 1 1 0 3.399 127.698 3.000 0 0 0
752 1 1 0 2.684 126.473 3.000 0 0 0
753 1 1 0 3.388 125.242 3.000 0 0 0
754 1 1 0 2.674 124.017 3.000 0 0 0
755 1 1 0 3.377 122.786 3.000 0 0 0
756 1 1 0 2.663 121.561 3.000 0 0 0
757 1 1 0 3.366 120.330 3.000 0 0 0
758 1 1 0 2.652 119.105 3.000 0 0 0
759 1 1 0 3.355 117.874 3.000 0 0 0
760 1 1 0 2.641 116.649 3.000 0 0 0
761 1 1 0 3.345 115.418 3.000 0 0 0
762 1 1 0 2.630 114.194 3.000 0 0 0
763 1 1 0 3.334 112.962 3.000 0 0 0
764 1 1 0 2.619 111.738 3.000 0 0 0
765 1 1 0 3.323 110.506 3.000 0 0 0
766 1 1 0 2.609 109.282 3.000 0 0 0
767 1 1 0 3.312 108.050 3.000 0 0 0
768 1 1 0 2.598 106.826 3.000 0 0 0
769 1 1 0 3.301 105.594 3.000 0 0 0
770 1 1 0 2.587 104.370 3.000 0 0 0
771 1 1 0 3.291 103.138 3.000 0 0 0
772 1 1 0 2.576 101.914 3.000 0 0 0
773 1 1 0 3.280 100.683 3.000 0 0 0
774 1 1 0 2.565 99.458 3.000 0 0 0
775 1 1 0 3.269 98.227 3.000 0 0 0
776 1 1 0 2.554 97.002 3.000 0 0 0
777 1 1 0 3.258 95.771 3.000 0 0 0
778 1 1 0 2.544 94.546 3.000 0 0 0
779 1 1 0 3.247 93.315 3.000 0 0 0
780 1 1 0 2.533 92.090 3.000 0 0 0
781 1 1 0 3.236 90.859 3.000 0 0 0
782 1 1 0 2.522 89.634 3.000 0 0 0
783 1 1 0 3.226 88.403 3.000 0 0 0
784 1 1 0 2.511 87.178 3.000 0 0 0
785 1 1 0 3.215 85.947 3.000 0 0 0
786 1 1 0 2.500 84.722 3.000 0 0 0
787 1 1 0 3.204 83.491 3.000 0 0 0
788 1 1 0 2.490 82.266 3.000 0 0 0
789 1 1 0 3.193 81.035 3.000 0 0 0
790 1 1 0 2.479 79.810 3.000 0 0 0
791 1 1 0 3.182 78.579 3.000 0 0 0
792 1 1 0 2.468 77.354 3.000 0 0 0
793 1 1 0 3.171 76.123 3.000 0 0 0
794 1 1 0 2.457 74.898 3.000 0 0 0
795 1 1 0 3.161 73.667 3.000 0 0 0
796 1 1 0 2.446 72.442 3.000 0 0 0
797 1 1 0 3.150 71.211 3.000 0 0 0
798 1 1 0 2.435 69.986 3.000 0 0 0
799 1 1 0 3.139 68.755 3.000 0 0 0
800 1 1 0 2.425 67.530 3.000 0 0 0
801 1 1 0 3.128 66.299 3.000 0 0 0
802 1 1 0 2.414 65.074 3.000 0 0 0
803 1 1 0 3.117 63.843 3.000 0 0 0
804 1 1 0 2.403 62.618 3.000 0 0 0
805 1 1 0 3.107 61.387 3.000 0 0 0
806 1 1 0 2.392 60.162 3.000 0 0 0
807 1 1 0 3.096 58.931 3.000 0 0 0
808 1 1 0 2.381 57.706 3.000 0 0 0
809 1 1 0 3.085 56.475 3.000 0 0 0
810 1 1 0 2.370 55.250 3.000 0 0 0
811 1 1 0 3.074 54.019 3.000 0 0 0
812 1 1 0 2.360 52.794 3.000 0 0 0
813 1 1 0 3.063 51.563 3.000 0 0 0
814 1 1 0 2.349 50.338 3.000 0 0 0
815 1 1 0 3.052 49.107 3.000 0 0 0
816 1 1 0 2.338 47.882 3.000 0 0 0
817 1 1 0 3.042 46.651 3.000 0 0 0
818 1 1 0 2.327 45.426 3.000 0 0 0
819 1 1 0 3.031 44.195 3.000 0 0 0
820 1 1 0 2.316 42.970 3.000 0 0 0
821 1 1 0 3.020 41.739 3.000 0 0 0
822 1 1 0 2.306 40.514 3.000 0 0 0
823 1 1 0 3.009 39.283 3.000 0 0 0
824 1 1 0 2.295 38.058 3.000 0 0 0
825 1 1 0 2.998 36.827 3.000 0 0 0
826 1 1 0 2.284 35.602 3.000 0 0 0
827 1 1 0 2.987 34.371 3.000 0 0 0
828 1 1 0 2.273 33.146 3.000 0 0 0
829 1 1 0 2.977 31.915 3.000 0 0 0
830 1 1 0 2.262 30.690 3.000 0 0 0
831 1 1 0 2.966 29.459 3.000 0 0 0
832 1 1 0 2.251 28.234 3.000 0 0 0
833 1 1 0 2.955 27.003 3.000 0 0 0
834 1 1 0 2.241 25.778 3.000 0 0 0
835 1 1 0 2.944 24.547 3.000 0 0 0
836 1 1 0 2.230 23.322 3.000 0 0 0
837 1 1 0 2.933 22.091 3.000 0 0 0