ITEM: TIMESTEP
284
ITEM: NUMBER OF ATOMS
20888
ITEM: BOX BOUNDS pp pp pp
0.0000000000000000e+00 1.2567601100000000e+02
0.0000000000000000e+00 2.1767723599999999e+02
0.0000000000000000e+00 1.8399999600000001e+01
ITEM: ATOMS id type x y z c_csym c_2[1] c_2[2] c_2[3] c_2[4] c_2[5] c_2[6] c_3 
1 1 4.3864e-06 -2.39398e-06 7.43514 6.04511 -18353.6 -18315.7 -6748.68 8.58664 -0.275779 -0.557486 -7.41274 
2 1 2.15734 1.17964 7.44194 6.03444 -28497.7 -8763.33 -4223.65 739.572 12612.1 -22910.6 -7.41302 
3 1 3.57655 1.14784 7.44984 6.0207 -27661.6 -11978.7 -3178.7 22879.9 10288.7 -28836.8 -7.41316 
4 1 6.41398 1.0867 7.46965 6.01583 -34508.3 -3933.15 3164.31 32972.2 10946 -42650.1 -7.4143 
5 1 7.83317 1.05969 7.4784 6.0227 -32560.6 -10812 -1792.51 66576.4 -2517.86 -25706.9 -7.4139 
60 1 0.0570683 2.45836 7.44193 6.02747 -24801.6 -13291.6 -4841.05 -8524.27 23727.5 1188.52 -7.41295 
61 1 1.47631 2.42532 7.44403 6.0271 -24399.5 -13610.8 -4062.71 -2328.85 26103.1 -12924 -7.41306 
62 1 2.21287 3.63888 7.45336 6.02081 -48293.3 9194.23 -1242.56 -14443.3 27759.5 -19701.4 -7.41339 
63 1 3.632 3.60711 7.45963 6.01478 -45751.8 3799.45 -2642.39 6531.96 30203.7 -22488.5 -7.41343 
64 1 4.31325 2.3615 7.45819 6.02628 -47709.6 10180.6 1773.42 8902.31 18635.2 -38045.4 -7.41384 
65 1 5.73237 2.33193 7.46739 6.01724 -45022.8 589.696 -3507.83 40216.3 13065.3 -28685 -7.41343 
66 1 6.46732 3.54677 7.47548 6.02266 -62425.7 28478.8 8659.59 16886.8 16982.4 -39214.4 -7.41498 
67 1 7.8864 3.51928 7.4824 6.02341 -56172.1 9263.67 -8801.12 48626.2 8331.56 -17570.8 -7.41341 
68 1 8.5687 2.27438 7.48354 6.01767 -44311.1 11285.1 9492.48 41359.5 12737 -33951.3 -7.41536 
178 1 0.111482 4.91688 7.45815 6.01676 -32647.4 -9849.13 -3117.81 -29092.3 33786.2 2426.62 -7.4133 
179 1 1.53073 4.88409 7.45966 6.02061 -29827 -8797.75 1027.15 -23301 42015.5 -10924.7 -7.41383 
180 1 2.26511 6.09883 7.46959 6.01918 -62897.5 19803.9 -1399.82 -36557.1 28047.6 -13954.4 -7.41366 
181 1 3.68422 6.06726 7.47357 6.0112 -56108.2 14970.9 376.856 -18211 37009.9 -14466.9 -7.41414 
182 1 4.36649 4.82199 7.46966 6.0198 -71226.1 33324.3 4311.2 -12421 23329.7 -31016.1 -7.41428 
183 1 5.78553 4.79216 7.4762 6.01313 -64537.9 18831.8 -5709.3 16119.7 23846.1 -18935.8 -7.41355 
184 1 6.51833 6.00814 7.48373 6.01551 -79953.6 47975 10474.7 -9197.9 13575 -30110.1 -7.41538 
185 1 7.93738 5.9799 7.48821 6.01969 -68241.9 22979.4 -12541 18923.3 11898.9 -8091.89 -7.41336 
186 1 8.62008 4.73496 7.488 6.02034 -62659.5 35638.5 15647.6 17635.4 11780.5 -29472.7 -7.4161 
296 1 0.16201 7.37545 7.47536 6.01751 -38044.4 -8579.54 -6136.4 -47970.9 27567.4 2499.56 -7.41343 
297 1 1.5813 7.34327 7.47625 6.01968 -30313.7 -4931.1 7429.9 -42955 41988.6 -7987.75 -7.41491 
298 1 2.31384 8.55901 7.48338 6.02726 -67736 22246.8 -6472.3 -50748.7 16282.9 -8550.51 -7.41365 
299 1 3.733 8.52797 7.48535 6.0136 -55712.6 19889.5 5578.07 -36549.6 30964.5 -5369.37 -7.41503 
300 1 4.4166 7.28326 7.48172 6.0198 -83487.7 43716.6 2289.95 -35126.1 16123.5 -21262.4 -7.41443 
301 1 5.83564 7.25327 7.48546 6.01261 -71526.7 28887.8 -4477.99 -11474.6 23553.7 -8070.49 -7.41405 
302 1 6.56689 8.47001 7.49048 6.01529 -85593.7 53321.8 7806.37 -32076 3599.07 -20515.5 -7.41535 
303 1 7.98597 8.44109 7.493 6.01982 -69056.6 29468.7 -11915.4 -9455.62 9347.18 624.869 -7.41368 
304 1 8.66944 7.19636 7.49273 6.01635 -71244.8 47022 17274.2 -10803.3 4812.35 -22915.4 -7.41637 
6 1 10.6711 1.00469 7.49004 6.01568 -27461.6 -6243.51 6088.99 54751.8 11604 -19751.5 -7.41524 
7 1 12.0903 0.98031 7.49266 6.02177 -25084.1 -11726.6 -4419.51 77895.8 -12032.7 -2700.72 -7.41433 
8 1 14.9293 0.927137 7.49459 6.01747 -18098.4 -8816.28 5468.8 57048.5 16724.9 -2937.71 -7.41534 
9 1 16.3485 0.903131 7.49508 6.01705 -15392.2 -10874 -6067.8 80812.6 -15112.2 -2068.77 -7.41451 
10 1 19.188 0.851045 7.49904 6.00311 -15556.6 -8741.63 3306.18 86165.6 24399.5 -15621 -7.4154 
69 1 9.98787 2.24892 7.48865 6.02993 -39543.7 -4254.28 -8301.03 69916.5 -4275.85 -10638.3 -7.41373 
70 1 10.7225 3.46417 7.49189 6.02045 -41395.1 15194.4 16336.6 37797.2 12610 -20282.1 -7.41629 
71 1 12.1417 3.43911 7.49375 6.03103 -32819.5 -6798.1 -16272 60979.3 -7071.84 262.883 -7.41339 
72 1 12.8257 2.19522 7.49384 6.01847 -25180 -1832.5 12531.1 49505.9 15109.7 -9147.63 -7.41595 
73 1 14.245 2.17081 7.49432 6.02356 -19328.8 -13253.1 -12343 70760.2 -11582.2 2079.27 -7.4139 
74 1 14.9803 3.38568 7.49571 6.01705 -17901.6 -7232.05 18630.6 42618.4 20940.7 -7912.21 -7.41648 
75 1 16.3996 3.36127 7.49627 6.02144 -8870.38 -18876.4 -20603.9 68182 -8081.73 -3670.24 -7.41361 
76 1 17.0843 2.11784 7.49597 6.01103 -15007.4 -11773 11452.2 60819.7 24599.5 -9012.93 -7.41589 
77 1 18.5036 2.0946 7.49787 6.01057 -8910.12 -14455.6 -14499.2 92473.1 -10842.8 -12200.4 -7.41418 
78 1 19.2394 3.30941 7.50184 6.00024 -17713.5 -13089.1 18514.8 74576.2 35186.4 -22033.4 -7.41653 
187 1 10.0392 4.70858 7.49164 6.03054 -52138.2 7644.8 -16592.1 44556.3 723.995 -4496.65 -7.41316 
188 1 10.7725 5.92448 7.49506 6.0245 -49366.2 28244.6 22625.1 10022.4 8676.06 -18999.5 -7.41695 
189 1 12.1917 5.89823 7.49652 6.03715 -34893.2 -1906.26 -24736.6 33218 -4063.2 1528.89 -7.41288 
190 1 12.8762 4.65441 7.49601 6.02388 -29372.3 7185.33 22908.5 27255.6 14806.2 -12292.5 -7.41694 
191 1 14.2955 4.62916 7.49652 6.03156 -17352.2 -14901.9 -24399.2 50103.5 -6701.93 772.187 -7.41313 
192 1 15.03 5.84431 7.49981 6.02213 -19710.7 -4645.7 29053.6 18969 21154 -15848.8 -7.41739 
193 1 16.4494 5.81918 7.50131 6.03017 -5378.6 -19797.8 -32352.5 47586.1 -1502.75 -8702.21 -7.41311 
194 1 17.1349 4.57611 7.49991 6.01137 -15643.1 -13739.6 24909.2 43031.1 29834.1 -17274.8 -7.41699 
195 1 18.5543 4.55257 7.50263 6.01592 -4010.04 -19200.7 -28853.1 77292 -1350.3 -16147.8 -7.41356 
196 1 19.289 5.76783 7.50979 6.00301 -25648.9 -10052.2 33554.5 54412.6 39603.9 -32183.5 -7.41771 
305 1 10.0886 7.16881 7.49515 6.02842 -55298.2 15679.2 -20628.5 13342.3 1482.64 671.364 -7.41304 
306 1 10.8207 8.38517 7.49814 6.02226 -53446 34261.5 24406.9 -17822.2 2134.57 -19018.8 -7.41708 
307 1 12.24 8.35762 7.49989 6.03616 -34780.3 5002.94 -28605.8 4671.22 -2235.48 519.071 -7.41283 
308 1 12.9251 7.11395 7.49961 6.02942 -32955.2 13351.3 29256.3 -458.641 11066.5 -17208.5 -7.41749 
309 1 14.3444 7.08756 7.50093 6.03864 -16052.6 -11020.2 -32558.6 24365 -2626.44 -3249.89 -7.41281 
310 1 15.0778 8.30322 7.50567 6.02887 -26996.1 2867.63 36043.6 -6121.54 18238 -26602.6 -7.41792 
311 1 16.4972 8.27735 7.5086 6.02837 -9119.17 -9707.72 -40445.4 25708.2 4033.45 -15200.4 -7.41301 
312 1 17.1835 7.03452 7.50731 6.0173 -22710.2 -8491.05 36379.6 20025.9 29916.6 -28903 -7.41791 
313 1 18.6029 7.01061 7.51126 6.0199 -6920.01 -12501 -40782.8 57624.8 6239.65 -21787.1 -7.41329 
314 1 19.3358 8.22679 7.52005 6.0117 -41744.2 3770.1 46974.6 32066.8 37295.1 -44022.6 -7.41878 
11 1 20.6073 0.829718 7.503 5.99767 -12450.5 -6846.07 -6891.15 125382 -17000 -23325.3 -7.41477 
12 1 23.4467 0.782828 7.51492 5.97046 -18805.5 -2900.92 3542.99 160068 33222.9 -36029.8 -7.4159 
13 1 24.866 0.767634 7.52177 5.96816 -15883.5 599.128 -6881.68 209258 -21924.2 -39476.4 -7.41511 
14 1 27.7057 0.729327 7.53514 5.941 -23417.3 5566.77 4580.87 249988 40398.6 -43649.1 -7.41639 
79 1 20.6587 3.28802 7.50648 6.00109 -8990.9 -12398.3 -22970.9 115410 -4424.21 -24836.6 -7.41405 
80 1 21.3433 2.04471 7.50695 5.98781 -20498 -7413.45 11214.9 114490 36310.2 -28994.3 -7.41617 
81 1 22.7625 2.02614 7.51326 5.98515 -14606.8 -4258.59 -15455.8 160965 -11551.9 -33195.2 -7.41455 
82 1 23.4979 3.24179 7.52093 5.97249 -34171 3257.62 21663.2 147816 48465.7 -40389.7 -7.41718 
83 1 24.9171 3.22653 7.52864 5.97577 -26058.1 6799.15 -24896.2 197669 -5826.44 -38655.1 -7.41434 
84 1 25.6017 1.98359 7.52845 5.95722 -31656.2 7700.39 13596.5 200779 46446.2 -43129.1 -7.41684 
85 1 27.0209 1.9719 7.5355 5.9581 -26610 9589.11 -16435.3 249499 -15779.8 -40389.8 -7.41476 
86 1 27.7554 3.18891 7.54461 5.94531 -50031.8 25834.9 25159.7 234383 57139.8 -45033.5 -7.41795 
197 1 20.7083 5.74632 7.51538 6.00845 -12327.4 -7999.02 -37805.2 97614.5 5859.49 -28425.7 -7.41365 
198 1 21.3938 4.50341 7.51431 5.98803 -31235.3 -4439.55 28451.6 97542 46057.3 -36320.8 -7.41746 
199 1 22.813 4.48481 7.52142 5.99294 -20382.2 -85.6858 -32242 145248 1747.29 -34402.4 -7.41399 
200 1 23.5466 5.70138 7.53213 5.97837 -53985 16844.8 41446.1 124370 53963.1 -46422.1 -7.41869 
201 1 24.9657 5.68603 7.54024 5.98882 -41502.3 21651.3 -43572.8 174550 5529.31 -38228.8 -7.41383 
202 1 25.6511 4.44334 7.53897 5.9613 -54795.4 23852.2 34287.7 179264 57676.2 -46437.6 -7.41842 
203 1 27.0702 4.43142 7.54658 5.97153 -45038.6 24611.5 -36056 228104 -1288.19 -39112.6 -7.41406 
204 1 27.8022 5.64974 7.55796 5.95598 -78077.9 49791.2 48102.9 203198 62085.8 -46555 -7.41976 
315 1 20.7551 8.20527 7.5263 6.00942 -25050.4 9279.26 -51292.4 77615.3 12284 -31312 -7.41345 
316 1 21.4415 6.96266 7.5255 5.99536 -48503.6 8431.08 45818 74435.3 46834.2 -45459.9 -7.41881 
317 1 22.8607 6.94407 7.53303 6.0017 -33703.1 15566.8 -48947.4 123306 10285 -35373.5 -7.41363 
318 1 23.5917 8.16203 7.54419 5.9914 -78747.9 38860.3 60827.3 97746 49418.9 -52567.2 -7.42017 
319 1 25.0107 8.14667 7.55207 6.00056 -62609.2 46428.2 -62746.3 147744 10631.9 -36200.1 -7.4134 
320 1 25.6971 6.90421 7.5519 5.97374 -81159.2 46336 56248.2 148991 56984.4 -49986.5 -7.4201 
321 1 27.1161 6.89204 7.55952 5.98877 -67257.4 48202 -57063.3 197423 6189.25 -36998.7 -7.41351 
322 1 27.8451 8.112 7.5705 5.97387 -107017 77353.2 71393.8 167532 55448.9 -48010.4 -7.42148 
15 1 29.1249 0.721162 7.54064 5.94121 -21399.5 7713.55 -7180.25 294138 -26950.5 -39615.7 -7.41531 
16 1 31.965 0.691576 7.54912 5.9224 -27335.6 12003.6 4670.61 322269 44090.8 -38308.2 -7.41655 
17 1 33.3842 0.6891 7.55192 5.92314 -26234.5 12144.5 -7276.2 353108 -29589.2 -30840.1 -7.41541 
18 1 36.2247 0.66632 7.55578 5.911 -30652.1 15564.1 4583.76 365628 45341.9 -28822.2 -7.41652 
19 1 37.6438 0.667625 7.55687 5.91374 -30031.5 14381.9 -6801.68 383971 -30795.7 -21216 -7.41546 
87 1 29.1745 3.18045 7.5508 5.95388 -43131.7 23542.8 -27194.3 279118 -9595.34 -37760 -7.41437 
88 1 29.8599 1.93834 7.54804 5.93205 -40080.7 21614.6 15007.8 283839 52279.1 -42196.9 -7.41731 
89 1 31.279 1.9331 7.55244 5.93722 -36144 18956.3 -17502.4 322164 -19157.9 -34684.6 -7.41481 
90 1 32.0125 3.15143 7.56141 5.92591 -57746.1 40349 26374.1 303564 60851.9 -37717.7 -7.41833 
91 1 33.4315 3.14849 7.56451 5.93841 -52061.8 31549.7 -28334.2 335560 -11961 -29189.8 -7.41433 
92 1 34.1183 1.9074 7.55922 5.91643 -44298.2 28974.3 15161.2 340839 54364 -33143.9 -7.41741 
93 1 35.5373 1.90685 7.56105 5.92446 -41240.9 22787.7 -17519.4 365697 -20842.1 -24981.1 -7.41483 
94 1 36.2699 3.12619 7.56959 5.91504 -59282.3 45325.3 26191 345313 61775.9 -27455.6 -7.41838 
95 1 37.6888 3.12699 7.57047 5.92909 -54370.2 32811.6 -27857.5 365279 -13346.1 -19982.4 -7.41434 
96 1 38.3769 1.88682 7.56382 5.90903 -45696.2 31125.9 14921.3 371081 54651.4 -23732.6 -7.41737 
205 1 29.2212 5.64082 7.56441 5.9719 -66667.4 45865.8 -48786.2 247853 1155.92 -35986.4 -7.4137 
206 1 29.9073 4.3988 7.56122 5.9395 -69495.7 47760.8 37697.1 256292 63560.7 -42331.2 -7.41915 
207 1 31.3262 4.39303 7.56598 5.95465 -60946.3 39785.6 -38937.5 295231 -4696.58 -33158.1 -7.41396 
208 1 32.057 5.61281 7.57676 5.93929 -87356.7 69190.6 50629.2 265899 65634 -37023.4 -7.42035 
209 1 33.4759 5.60911 7.58002 5.95877 -77221 55665.2 -51079.7 298662 -2003.67 -27983.5 -7.41356 
210 1 34.1633 4.36806 7.57439 5.9253 -73451.6 58385.9 38272.3 309573 65650.8 -31886.6 -7.41942 
211 1 35.5822 4.36681 7.57622 5.94294 -65946.3 43977 -39421 335767 -6650.81 -23993.5 -7.41391 
212 1 36.312 5.58759 7.58642 5.92883 -85766.5 73843.7 50239.4 304483 67021.4 -26094.7 -7.4205 
213 1 37.7308 5.5875 7.58711 5.9496 -76629.4 54870.4 -50549.1 325866 -3763.92 -19483.1 -7.41355 
214 1 38.4196 4.34739 7.57977 5.91768 -71130.5 59205.7 37427.2 338461 66070.8 -22084.1 -7.41941 
323 1 29.2639 8.10262 7.57683 5.99001 -91505.9 74949 -71392 211520 4202.09 -32918.5 -7.41306 
324 1 29.951 6.86075 7.57557 5.956 -99000.8 75977.1 62173.9 217376 61911.4 -42557 -7.42106 
325 1 31.3698 6.85429 7.58047 5.97543 -86117.8 66711.6 -62090.7 256344 1244.67 -31186.4 -7.41328 
326 1 32.0974 8.07576 7.59071 5.95981 -115658 98271.4 75682.6 222574 58577.2 -36899.8 -7.42224 
327 1 33.5162 8.0712 7.59413 5.9766 -101254 84879.6 -74962.6 255595 -640.801 -26148.4 -7.41285 
328 1 34.2046 6.83027 7.59053 5.94324 -101053 87266.2 63357.5 265125 64312.8 -31107.8 -7.42148 
329 1 35.6233 6.82808 7.59243 5.96421 -89226.1 69812.6 -63074.1 292253 -1637.64 -23104.1 -7.41318 
330 1 36.3501 8.05047 7.60225 5.94967 -110437 101058 75409.2 257079 60772.1 -25756.1 -7.42249 
331 1 37.7688 8.04933 7.60296 5.96781 -97128 81182.9 -74548.1 279456 -3097.97 -18911.8 -7.41284 
332 1 38.4587 6.8094 7.59712 5.93519 -94369.5 85481.6 61894.8 291795 65693.2 -21087.7 -7.42153 
20 1 40.4845 0.649495 7.55832 5.90694 -33064.7 17340.1 4547.68 385869 45490.4 -20528.7 -7.41646 
21 1 41.9036 0.65306 7.55862 5.91028 -32489.1 15710.3 -6174.56 395733 -31581.5 -13730.2 -7.41552 
22 1 44.7444 0.637921 7.55901 5.90696 -34453 18774.4 4497.72 392232 45158.4 -14432.2 -7.41643 
23 1 46.1634 0.642756 7.55898 5.91002 -33891.9 16932.6 -5636.06 397091 -32229 -8431.41 -7.4156 
97 1 39.7959 1.88922 7.56423 5.91804 -43044.5 23276.6 -16750.9 385537 -21931.1 -16484.7 -7.41487 
98 1 40.5275 3.1093 7.57217 5.9103 -57470.7 44679 25485.2 365130 61557.2 -18990.2 -7.41832 
99 1 41.9465 3.11238 7.57184 5.92443 -52871.5 30954.7 -26642.3 376728 -14493.7 -12782.9 -7.41441 
100 1 42.6357 1.87293 7.56496 5.90682 -45214.8 30966.5 14548.5 383243 54213.1 -16536.6 -7.41731 
101 1 44.0547 1.87706 7.56467 5.9158 -42657.4 22794.3 -15811 391089 -22876 -10287.1 -7.41495 
102 1 44.7856 3.09767 7.57176 5.90917 -54005.2 42214.1 24660.2 371604 60850.1 -12912.9 -7.41825 
103 1 46.2045 3.10205 7.57083 5.92211 -49618.7 28221.3 -25340.2 378114 -15555.9 -7659.8 -7.41451 
104 1 46.8947 1.86314 7.56445 5.90731 -43958.6 30215 14152.7 385514 53487.5 -11404.3 -7.41727 
105 1 48.3137 1.86822 7.56386 5.9156 -41484.7 21839.3 -14981.4 389661 -23734.6 -5929.41 -7.41504 
215 1 39.8385 4.34906 7.57973 5.93571 -64313 41764.8 -38253.2 354599 -7971.12 -15907.6 -7.41395 
216 1 40.5676 5.57047 7.58927 5.92327 -79259.2 70157.8 48598.9 323496 67456 -17470.8 -7.42044 
217 1 41.9864 5.57265 7.58834 5.94279 -70644.5 49300.4 -48658.5 336687 -4950.39 -12637.5 -7.41363 
218 1 42.6765 4.33334 7.58035 5.91449 -65811 55546.1 36123.8 350560 65749.6 -14832.9 -7.41932 
219 1 44.0954 4.33677 7.57927 5.93125 -59341.7 37326.5 -36536.9 360098 -9111.61 -9900.64 -7.41405 
220 1 44.824 5.55856 7.58792 5.92084 -70781.5 63449.9 46707.7 330213 67322.1 -11375.2 -7.42033 
221 1 46.2428 5.56209 7.58607 5.9391 -62563.3 42090.2 -46468.1 338178 -5948.77 -7632.85 -7.41375 
222 1 46.934 4.32339 7.57833 5.91379 -59519 50499.2 34829.9 353256 65062.5 -9748.01 -7.41923 
223 1 48.353 4.3278 7.57672 5.92929 -53302.9 32111 -34884.1 358902 -10166.4 -5636.3 -7.41416 
333 1 39.8775 6.81005 7.59676 5.95629 -83423 64143.7 -61516.8 309307 -3130.27 -15743.5 -7.41323 
334 1 40.6037 8.03295 7.6062 5.94314 -99104.9 93706.3 72986.6 274616 62478.2 -17075.3 -7.42247 
335 1 42.0224 8.03404 7.60489 5.9627 -86535.7 71296.5 -72130.3 288939 -4217.01 -12717.8 -7.41294 
336 1 42.7138 6.79498 7.59768 5.93076 -84073.3 77907 59512.1 303524 66432.8 -13753.1 -7.42143 
337 1 44.1326 6.7974 7.59588 5.95065 -73728 55121.6 -58982.9 314366 -4054.72 -10020.5 -7.41335 
338 1 44.8584 8.02054 7.60465 5.93927 -85808.2 82459.9 70024.8 281027 63610.4 -10886.8 -7.42236 
339 1 46.2773 8.02298 7.60202 5.95868 -73791.6 59235 -69107.4 289968 -4829.96 -7924.77 -7.41309 
340 1 46.9698 6.78464 7.59445 5.92855 -72776.3 68321.2 57132.9 306474 66636.9 -8631.14 -7.42131 
24 1 49.0041 0.629495 7.55894 5.90865 -35461.3 19875.9 4424.28 391800 44649.7 -10065.2 -7.41643 
25 1 50.4232 0.635016 7.55877 5.91125 -34834.5 17829 -5234.4 394043 -32814.7 -4660.92 -7.41568 
26 1 53.2638 0.622914 7.55854 5.91086 -35861.3 20695 4356.32 389004 44106.1 -6862.91 -7.41645 
27 1 54.6829 0.628782 7.5583 5.91282 -35071.7 18533.4 -4935.73 389917 -33343.9 -1829.94 -7.41574 
28 1 57.5235 0.617336 7.55796 5.91248 -35461.5 21171.8 4330.72 386203 43551.9 -4403.22 -7.41647 
106 1 49.044 3.0892 7.5699 5.90977 -50058.6 39034.8 23892.3 371413 59981.7 -8608.16 -7.4182 
107 1 50.4629 3.0943 7.5687 5.92153 -45762.5 24966.8 -24233.5 375178 -16526.7 -4026.04 -7.4146 
108 1 51.1539 1.85577 7.56322 5.90886 -42201.9 28990.7 13794.7 383567 52719.9 -7706.46 -7.41726 
109 1 52.5729 1.86135 7.56248 5.91609 -39701.9 20509.4 -14336 385784 -24498.5 -2769.84 -7.41512 
110 1 53.3027 3.08255 7.56733 5.91082 -45473.6 35451.3 23287.1 368823 59128.8 -5460.77 -7.41818 
111 1 54.7217 3.08803 7.56596 5.92146 -41131 21490.2 -23397.7 371142 -17350.7 -1328.2 -7.41468 
112 1 55.4131 1.84976 7.56159 5.91045 -39629.9 27548.2 13551.6 380566 51990.9 -4936.04 -7.41727 
113 1 56.8322 1.85559 7.56074 5.91667 -37070 18872.5 -13871.2 381837 -25130.9 -323.062 -7.41518 
114 1 57.5618 3.07689 7.56428 5.9116 -40278 31613.4 22922.4 366104 58344.4 -3028.05 -7.41817 
224 1 49.0811 5.54982 7.58423 5.92003 -61985.3 55850.8 44999.6 330498 66856.3 -7106.07 -7.42023 
225 1 50.5 5.55409 7.58191 5.93713 -54030.4 34367.4 -44531.7 335479 -6875.55 -4045.65 -7.41386 
226 1 51.192 4.31585 7.57499 5.91404 -52863.4 44879 33728 351749 64259.5 -6120.3 -7.41918 
227 1 52.611 4.3208 7.57311 5.92839 -46730.3 26549.6 -33552.8 355290 -11116.5 -2561.01 -7.41425 
228 1 53.3389 5.5429 7.57928 5.91971 -52579.2 48024.3 43658.8 328291 66233.2 -4003.59 -7.42017 
229 1 54.7579 5.54757 7.57665 5.93573 -44737.1 26480.2 -43061.3 331571 -7703.82 -1404.72 -7.41395 
230 1 55.4506 4.30967 7.5709 5.91437 -45522.1 39136.6 32951.9 349050 63451.7 -3405.55 -7.41914 
231 1 56.8696 4.31489 7.56882 5.92764 -39469.4 20603.6 -32606.9 351424 -11894.6 -216.631 -7.41432 
232 1 57.5975 5.53694 7.57347 5.91912 -42815.1 39926 42806.4 325739 65534.5 -1587.72 -7.42014 
341 1 48.3887 6.78807 7.59182 5.94733 -62864.7 45258.6 -56419 313207 -4821.36 -5824.4 -7.41348 
342 1 49.1143 8.0113 7.59955 5.937 -72249.6 70401.4 67302.6 281337 64174.3 -6528.22 -7.42223 
343 1 50.5332 8.0145 7.59612 5.95548 -60703.1 46767.7 -66323.3 286974 -5357 -4365.99 -7.41323 
344 1 51.2268 6.77672 7.58903 5.92739 -61449 58325.9 55117.5 305258 66471.9 -4992.21 -7.42121 
345 1 52.6458 6.78071 7.58593 5.94513 -51732.7 35213.5 -54309.2 309605 -5558.07 -2766.97 -7.41359 
346 1 53.3713 8.00388 7.59227 5.93529 -58260.9 58254 65139.2 279099 64273.1 -3344.69 -7.42215 
347 1 54.7904 8.00749 7.58832 5.9529 -46950.4 34409 -64177.3 282778 -5906.31 -1711.96 -7.41333 
348 1 55.4847 6.77015 7.58228 5.9263 -49546.9 48317.7 53671.7 302683 66042.8 -2263.55 -7.42115 
349 1 56.9037 6.77442 7.57884 5.94316 -40025.8 24915.8 -52811.3 305692 -6228.79 -451.114 -7.41367 
350 1 57.6295 7.99741 7.58354 5.93347 -44048.8 45955 63722.3 276462 63983.6 -830.33 -7.4221 
29 1 58.9426 0.623355 7.55766 5.91404 -34648.7 18508.2 -4726.99 386553 -33827.1 454.206 -7.41578 
30 1 61.7832 0.612197 7.55729 5.9132 -34933 20809.5 4311.89 384805 43026.9 -2339.31 -7.41648 
31 1 63.2023 0.618251 7.55699 5.91438 -34047.5 17717 -4625.24 385118 -34308 2457.33 -7.41579 
32 1 66.043 0.607097 7.55664 5.91236 -33247.8 19711.4 4270.11 385673 42537 -313.386 -7.41647 
33 1 67.462 0.613129 7.55635 5.91313 -32236.2 16081.6 -4617.97 385985 -34756.2 4466.19 -7.41578 
115 1 58.9808 3.08253 7.56278 5.92122 -35950.7 17317.5 -22847.1 367712 -18002.5 831.43 -7.41473 
116 1 59.6726 1.84444 7.55968 5.91149 -36776 25436.6 13436.4 378272 51336.5 -2715.88 -7.41727 
117 1 61.0917 1.85036 7.55877 5.91676 -34219.3 16348.6 -13599.9 379210 -25664.7 1730.44 -7.41522 
118 1 61.8213 3.07163 7.56092 5.91153 -34995.6 27051.7 22764.2 364578 57674.7 -937.666 -7.41817 
119 1 63.2403 3.07731 7.55937 5.92033 -30597 12378.3 -22580.5 365980 -18510.4 2743.21 -7.41475 
120 1 63.9323 1.83931 7.55766 5.91151 -33343.3 22643.9 13392.3 377813 50773.5 -686.154 -7.41727 
121 1 65.3514 1.84523 7.55676 5.91601 -30620.3 13101.9 -13507.8 378741 -26108.1 3659.7 -7.41522 
122 1 66.0812 3.06634 7.55754 5.9105 -28492.2 21875.6 22752.1 365053 57127.8 1172.97 -7.41817 
123 1 67.5004 3.072 7.55605 5.91849 -23915 6583.64 -22552.7 366380 -18869.3 4699.73 -7.41473 
233 1 59.0166 5.54178 7.57063 5.93424 -35014.9 18216.9 -42101.3 328149 -8383.3 683.574 -7.414 
234 1 59.7097 4.30414 7.56626 5.91409 -37987.9 32914.1 32530.6 346827 62703.2 -1190.33 -7.41913 
235 1 61.1288 4.30945 7.56406 5.92651 -31969.6 13978 -32055.3 348715 -12500.4 1743.95 -7.41435 
236 1 61.8569 5.53134 7.56713 5.91792 -32966.1 31308.4 42400.9 324213 64846.9 550.914 -7.42013 
237 1 63.276 5.53623 7.56421 5.93218 -25102.3 9160.52 -41627.3 326206 -8908.08 2542.3 -7.41402 
238 1 63.9694 4.29875 7.56137 5.91306 -29854.9 25975 32388.6 346179 62055.3 899.431 -7.41913 
239 1 65.3886 4.30407 7.55919 5.92461 -23592.5 6716.52 -31853.5 347887 -12935.9 3614.55 -7.41435 
240 1 66.1171 5.52567 7.56076 5.91588 -21924.3 22138.4 42353.7 324402 64218.7 2766.72 -7.42013 
241 1 67.5363 5.53053 7.55797 5.92928 -13859.9 -745.047 -41570.2 326082 -9285.11 4468.92 -7.414 
351 1 59.0486 8.00121 7.57924 5.95028 -32841.2 21888.7 -62769.9 279093 -6442.26 387.689 -7.41339 
352 1 59.7436 6.76419 7.5746 5.92485 -37532.4 38056.5 52840.7 300504 65451 7.58963 -7.42112 
353 1 61.1627 6.76857 7.57097 5.94087 -28097.4 14159 -51936.7 302808 -6802.04 1479.33 -7.41371 
354 1 61.8889 7.99127 7.57394 5.93119 -29869 33233.4 63004.9 274844 63439.9 1449.91 -7.42208 
355 1 63.3081 7.99511 7.56953 5.94714 -18576.1 8652.35 -62073.3 276849 -6936.67 2261.69 -7.4134 
356 1 64.0034 6.75835 7.56655 5.92276 -24935.2 27009.6 52529.7 299728 64791.4 2211.02 -7.42112 
357 1 65.4226 6.76272 7.56294 5.93788 -15209.7 2814.34 -51618.4 301585 -7263.45 3338.39 -7.4137 
358 1 66.1494 7.98501 7.56429 5.92821 -14598.6 19895.8 62878.7 274837 62743.7 3851.25 -7.42209 
359 1 67.5687 7.98881 7.56006 5.94324 -3064.69 -5372.18 -62011.8 276318 -7399.54 4207.59 -7.41338 
34 1 70.3029 0.601713 7.55606 5.91067 -31162.4 17801.3 4205.86 388625 42126.2 1976.36 -7.41644 
35 1 71.722 0.607623 7.55578 5.91116 -30153.8 13521.2 -4692.53 388515 -35158.9 6827.5 -7.41576 
36 1 74.5631 0.595594 7.55549 5.90851 -28648.6 15030.5 4140.61 392611 41764.6 4784.81 -7.4164 
37 1 75.9822 0.601205 7.55519 5.90899 -27440.6 10505.4 -4809.36 391294 -35468.8 9878.81 -7.41572 
124 1 68.1924 1.83403 7.55574 5.91051 -28857.2 19061.7 13403.2 379584 50327.5 1494.94 -7.41726 
125 1 69.6115 1.8399 7.5549 5.91426 -26072.7 8846.01 -13575.8 380325 -26446.5 5778.84 -7.41519 
126 1 70.3418 3.06072 7.55447 5.90855 -21647.4 15680.3 22886.4 367486 56757.3 3604.76 -7.41816 
127 1 71.761 3.06626 7.55311 5.91584 -17042.6 -434.974 -22757.2 368306 -19067.1 7012.1 -7.4147 
128 1 72.4528 1.82824 7.55405 5.90886 -24415.4 14477.6 13487.1 382998 50025.9 4096.51 -7.41724 
129 1 73.8719 1.83391 7.55325 5.91164 -21478 3735.36 -13784 382929 -26639.4 8419.87 -7.41515 
130 1 74.6029 3.05432 7.55179 5.90625 -14399.3 8676.08 23202.1 370835 56540.2 6633.82 -7.41815 
131 1 76.0222 3.05957 7.55053 5.91288 -9467.37 -7812.04 -23157.1 370355 -19036.2 10013.5 -7.41464 
132 1 76.7137 1.82141 7.55249 5.90616 -19031.1 9540.69 13666.5 386559 49819 7416.53 -7.4172 
242 1 68.2299 4.29316 7.55672 5.911 -20730.8 18279.2 32480.7 347492 61547.8 3197.81 -7.41913 
243 1 69.6491 4.29841 7.55469 5.92177 -14373.6 -1838.17 -31967.5 348839 -13214.1 5689.54 -7.41432 
244 1 70.3783 5.5196 7.55497 5.91301 -10738.8 11708.6 42636.4 326325 63704.1 5363.32 -7.42014 
245 1 71.7976 5.52433 7.55244 5.92562 -2509.48 -11906.6 -41923.8 327316 -9526.9 6742.43 -7.41395 
246 1 72.4912 4.287 7.55263 5.90833 -11777.2 9436 32825.8 350220 61205.6 5987.92 -7.41914 
247 1 73.9104 4.29206 7.55079 5.9184 -5159.6 -11287.8 -32384.1 350622 -13289.5 8272.72 -7.41427 
248 1 74.6405 5.51272 7.55001 5.90988 781.833 370.563 43289.2 328991 63281.2 8646.39 -7.42017 
249 1 76.0598 5.51717 7.54775 5.92168 9515.64 -23536.1 -42650.2 328488 -9555.98 9690.5 -7.41388 
250 1 76.7532 4.27978 7.54913 5.90563 -1775.55 227.376 33446.3 352997 60989.3 9599.32 -7.41915 
360 1 68.2644 6.75224 7.55884 5.9198 -11628.1 15190.3 52663.3 300717 64135.9 4673.64 -7.42114 
361 1 69.6837 6.75654 7.5555 5.93405 -1731.51 -9839.58 -51815.8 302030 -7646.07 5403.95 -7.41366 
362 1 70.4113 7.9783 7.55548 5.92456 640.97 5167.13 63287.1 276615 61966.4 6684.56 -7.42212 
363 1 71.8307 7.98196 7.55165 5.93856 12465.4 -20825.3 -62572.2 277094 -7855.31 6484.38 -7.41331 
364 1 72.5265 6.74551 7.55209 5.91637 1544.59 2072.88 53242.5 303040 63504.8 7694.03 -7.42117 
365 1 73.9458 6.74962 7.54911 5.92968 11839.9 -23493.7 -52513.8 303149 -7919.93 7959.41 -7.41359 
366 1 74.6744 7.97073 7.54804 5.92071 16141.7 -10663.9 64250 279143 61099.2 10268.1 -7.42216 
367 1 76.0939 7.97412 7.54471 5.93358 28643.5 -36707.4 -63709.7 277859 -8214.78 9392.44 -7.41321 
368 1 76.7897 6.73771 7.54652 5.91296 15656.2 -11582.4 54271.4 305364 62878.7 11623.1 -7.42121 
38 1 78.8235 0.588096 7.55485 5.90652 -25424 12100.5 4061.31 395845 41419.9 8479.75 -7.41634 
39 1 80.2426 0.593104 7.55449 5.90726 -24081.9 7304.04 -4975.94 392199 -35667.9 14022.8 -7.4157 
40 1 83.0842 0.578249 7.55396 5.90579 -21833.9 9068.84 3884.58 395376 41058.4 13620.6 -7.41628 
41 1 84.5034 0.582124 7.55342 5.90643 -20399.6 3947.73 -5184.83 387229 -35655.8 19791.3 -7.4157 
133 1 78.1329 1.82666 7.55172 5.90915 -15884.6 -1592.01 -14100.4 384784 -26642.2 11942.9 -7.41511 
134 1 78.8648 3.04653 7.54944 5.90423 -6519.12 1583.12 23667 373342 56443.7 10642.7 -7.41813 
135 1 80.284 3.05119 7.54828 5.91031 -1317.35 -15281.2 -23716.3 370419 -18740.2 14118.6 -7.41459 
136 1 80.975 1.81277 7.55101 5.90412 -13295.5 4555.35 13855.3 388131 49678.1 11918.5 -7.41717 
137 1 82.3943 1.81719 7.55024 5.90798 -9936.32 -6907.91 -14506.3 383039 -26418.2 16816 -7.41508 
138 1 83.1272 3.03642 7.54741 5.90375 1308.03 -5403.43 24113 372181 56398.8 16181.7 -7.41812 
139 1 84.5465 3.03997 7.54633 5.9094 6853.1 -22502.3 -24328.4 364636 -18058.5 19842.6 -7.41456 
140 1 85.2368 1.80112 7.54944 5.90418 -7429.97 -376.475 13916.9 383667 49482.9 18244 -7.41712 
141 1 86.656 1.80403 7.54853 5.90877 -3786.85 -11788.7 -14900 372481 -25781 23574.4 -7.41509 
251 1 78.1726 4.28443 7.54747 5.91504 5212.28 -20871.8 -33055 351527 -13095.7 11736.7 -7.4142 
252 1 78.9036 5.50445 7.54596 5.90707 12923.8 -11080.2 44249.3 330801 62944 13012.1 -7.4202 
253 1 80.3231 5.50832 7.54402 5.91818 22039.5 -35362.2 -43670.1 327565 -9281.72 13723.2 -7.4138 
254 1 81.0161 4.27076 7.54626 5.9038 8141.22 -9030.62 34202.8 353789 60881.8 14494.3 -7.41916 
255 1 82.4355 4.27461 7.54482 5.91266 15547.1 -30374.3 -33885.3 348757 -12546 16545.2 -7.41414 
256 1 83.1677 5.49387 7.543 5.90591 24661.6 -22516.9 45264.3 329033 62680 18961.9 -7.42023 
257 1 84.5873 5.49666 7.54143 5.91639 34383.3 -46668.4 -44753.9 320924 -8475.78 19296.8 -7.41374 
258 1 85.2797 4.25877 7.5441 5.90438 17794.4 -17950.1 34849.9 348760 60775.7 21260.8 -7.41916 
259 1 86.6992 4.26115 7.54286 5.91281 25679 -39073.1 -34633.4 337507 -11369.2 23165.3 -7.41413 
369 1 78.2092 6.7414 7.54394 5.92535 26502.1 -37334.9 -53648.1 303316 -7981.31 11360.4 -7.4135 
370 1 78.939 7.96177 7.54229 5.91726 32131.4 -26866.3 65652.3 280960 60196.1 14968.2 -7.42222 
371 1 80.3586 7.96459 7.53958 5.92909 45215.1 -52990.4 -65287.1 276604 -8285.29 13275.3 -7.4131 
372 1 81.0541 6.72811 7.54234 5.9105 29384.6 -25579.1 55547.4 305766 62309.7 16885.4 -7.42126 
373 1 82.4737 6.73102 7.54028 5.92204 40888.9 -51209.2 -55033.1 299827 -7626.76 16012.6 -7.4134 
374 1 83.2047 7.95053 7.53863 5.91548 47442.3 -43232.1 67150.4 279366 59392.1 21171.2 -7.42227 
375 1 84.6245 7.9523 7.53669 5.92632 61343.6 -68821.1 -66937.2 269860 -7657.81 18447.3 -7.41299 
376 1 85.3196 6.7156 7.53987 5.91047 42399.7 -39171.4 56718.4 300757 61847.7 23939.4 -7.42128 
377 1 86.7392 6.71707 7.53841 5.92129 54567.2 -64216 -56261 288435 -6401.81 22238.5 -7.41334 
490 1 81.0883 9.1847 7.53782 5.92237 50488.9 -45475.3 77169.2 256970 55732.5 18671.1 -7.42315 
491 1 82.5081 9.18652 7.53525 5.93265 66018.4 -70528.6 -77252.8 249614 -9794.57 15255.9 -7.41266 
494 1 85.3556 9.17146 7.53556 5.92164 66688.9 -64100.1 78686.2 252894 54907.9 25656.4 -7.42316 
495 1 86.7755 9.17189 7.53406 5.93092 83080.6 -88017 -78914.8 239044 -8447.77 20620.6 -7.41256 
42 1 87.3451 0.564508 7.5523 5.90813 -17655.2 6177.58 3550.61 385719 40550 20884.8 -7.41622 
43 1 88.7642 0.566341 7.55129 5.90935 -16119 1027.8 -5360.69 369701 -35171 27660.3 -7.41575 
44 1 91.6059 0.544405 7.54855 5.91637 -13490.5 3476.59 3071.9 358698 39569.4 30435 -7.41615 
45 1 93.0251 0.54276 7.54629 5.91934 -12135.3 -1623.2 -5290.49 330750 -33726.9 36907.5 -7.41582 
46 1 95.8663 0.514418 7.53987 5.93378 -10975.3 993.537 2677.8 305071 37072.4 39887.9 -7.41599 
142 1 87.3901 3.02247 7.54554 5.90558 8888.34 -11862.1 24318.1 362240 56220.5 23880.2 -7.41808 
143 1 88.8095 3.02403 7.54439 5.91218 14805.2 -28321.2 -24762.8 346721 -16685.8 27556.8 -7.4146 
144 1 89.4988 1.78452 7.54715 5.90885 -1902.47 -4464.1 13690.9 366490 48989.1 26932.1 -7.41706 
145 1 90.9181 1.78476 7.54571 5.91461 1847.03 -15294.9 -15058.7 345424 -24380.5 32263.9 -7.41516 
146 1 91.6532 3.0023 7.54301 5.91372 13792.5 -16323.7 23971.8 336087 55528.9 33790.8 -7.41797 
147 1 93.0726 3.00045 7.54122 5.92024 19867.2 -30541.4 -24547.1 308834 -14133.8 36403 -7.41471 
148 1 93.7606 1.75999 7.54238 5.92159 966.578 -6955.35 13093.9 327900 47493.9 37170.7 -7.41691 
149 1 95.18 1.75587 7.53944 5.92526 4528.65 -15803.2 -14525.9 293395 -21635 40556.6 -7.41526 
150 1 95.9159 2.97247 7.53743 5.93216 11958 -16480.5 22928.1 285801 53158.4 43448.6 -7.41765 
260 1 87.4327 5.47955 7.54125 5.9083 35086.6 -33320.9 45968.2 319220 62447.8 26990.7 -7.42021 
261 1 88.8523 5.4804 7.54006 5.91828 45435.6 -56182.4 -45487.5 303088 -6654.34 26643 -7.41374 
262 1 89.5439 4.24196 7.54244 5.91002 25498.6 -25503.2 35006.2 332077 60507.7 30306.4 -7.41909 