ITEM: TIMESTEP
0
ITEM: NUMBER OF ATOMS
20888
ITEM: BOX BOUNDS pp pp pp
0.0000000000000000e+00 1.2567601100000000e+02
0.0000000000000000e+00 2.1767723599999999e+02
0.0000000000000000e+00 1.8399999600000001e+01
ITEM: ATOMS id type x y z c_csym c_2[1] c_2[2] c_2[3] c_2[4] c_2[5] c_2[6] c_3 
1 1 0 0 7.5 6.04908 10648.7 10630.7 -64729.8 36.1441 0.0814479 0.0493194 -7.41189 
2 1 2.14193 1.20885 7.5 6.04914 9974.16 11450.9 -63208.6 -1258.37 8579.23 -15158.8 -7.41197 
3 1 3.56186 1.19496 7.5 6.04918 11457.9 9438.9 -61378.8 2580.92 8217.01 -23929.8 -7.41206 
4 1 6.40173 1.16717 7.5 6.04918 9823.27 9332.14 -54637.4 -3776.6 8088.36 -40490.6 -7.41241 
5 1 7.82166 1.15328 7.5 6.04918 11065.2 7093.96 -51100.5 5481.4 5863.51 -43824.7 -7.4126 
60 1 0.0240666 2.45939 7.5 6.04908 8621.36 12163.2 -63267.1 -49.1301 17149.9 41.4128 -7.41197 
61 1 1.444 2.4455 7.5 6.04913 12045.3 9100.38 -62744.9 1189.29 17330.5 -9875.05 -7.41199 
62 1 2.166 3.66825 7.5 6.04913 7606.36 12913 -60340.2 -1073.94 24377.1 -14644.5 -7.41212 
63 1 3.58593 3.65435 7.5 6.0492 12366.8 7672.93 -58654.7 3098.22 24503.8 -22797.5 -7.41221 
64 1 4.28386 2.41771 7.5 6.0492 8825.44 11300.7 -58715.1 -2328.83 16080.3 -28805.9 -7.4122 
65 1 5.70379 2.40381 7.5 6.0492 11834.3 7520.99 -56195.8 4474.7 15143.8 -34757 -7.41233 
66 1 6.42579 3.62656 7.5 6.0492 7524.35 10801.3 -51605.2 -3120.24 21660.3 -39382.3 -7.41257 
67 1 7.84573 3.61267 7.5 6.0492 12060.2 5508.18 -49466.9 6366.4 19890.6 -41371 -7.41268 
68 1 8.54366 2.37602 7.5 6.0492 8605.61 8522.65 -46634.1 -4600.46 14053.4 -48123.7 -7.41283 
178 1 0.0481333 4.91879 7.5 6.04909 5968.86 13660.8 -59168.9 -96.4766 31935.3 246.062 -7.41218 
179 1 1.46807 4.90489 7.5 6.04913 12606.8 7352.46 -58313 1397.56 32889 -9445.09 -7.41222 
180 1 2.19006 6.12764 7.5 6.04913 4742.82 14360 -55172.6 -871.055 36926.1 -13433.8 -7.41239 
181 1 3.61 6.11375 7.5 6.0492 12658.6 5977.52 -53209.6 3482.85 38057.8 -20922.3 -7.41249 
182 1 4.30793 4.8771 7.5 6.0492 6229.08 12816.4 -54614.4 -1860.49 29616.6 -27318.1 -7.41241 
183 1 5.72786 4.86321 7.5 6.0492 12478.5 5919.8 -52611 5099.93 29414.3 -32280.9 -7.41252 
184 1 6.44986 6.08596 7.5 6.0492 4788.42 12321.5 -46588.1 -2494.41 32293.8 -36628.5 -7.41283 
185 1 7.86979 6.07206 7.5 6.0492 12514.1 4079.97 -45496.2 7032.17 31517.3 -37370.9 -7.41289 
186 1 8.56773 4.83542 7.5 6.0492 6154.13 10081.8 -42512.4 -3772.46 24815.2 -45854.5 -7.41304 
296 1 0.0721999 7.37818 7.5 6.04909 2939.97 15031.7 -53100.4 -141.655 42609 554.753 -7.4125 
297 1 1.49213 7.36429 7.5 6.04913 12608.9 5585.43 -51283.7 1560.25 44828.6 -8803.75 -7.41258 
298 1 2.21413 8.58704 7.5 6.04913 1671.78 15681 -48489.4 -718.888 44806.2 -11703.2 -7.41273 
299 1 3.63406 8.57314 7.5 6.0492 12520.8 4291.31 -45525.6 3743.59 47424 -18415.8 -7.41288 
300 1 4.332 7.3365 7.5 6.0492 3274.57 14244.1 -48691.9 -1474.02 39274.7 -24741.4 -7.41272 
301 1 5.75193 7.3226 7.5 6.0492 12605.2 4354.65 -46659.3 5560.45 40318.4 -28699.5 -7.41283 
302 1 6.47393 8.54535 7.5 6.0492 1875.74 13769.2 -40318.4 -2009.65 38733.2 -32587.1 -7.41315 
303 1 7.89386 8.53146 7.5 6.0492 12585.8 2733.67 -39580.7 7456.08 39456.3 -32109.1 -7.41319 
304 1 8.59179 7.29481 7.5 6.0492 3407.72 11633.9 -36980.3 -3082.46 32238.8 -41814.3 -7.41332 
6 1 10.6615 1.12549 7.5 6.04918 9477.21 6300.16 -40430.4 -6144.35 7648.1 -52509 -7.41315 
7 1 12.0815 1.11159 7.5 6.04918 10527.7 4404.98 -36910 7908.05 2126.81 -48690 -7.41333 
8 1 14.9213 1.0838 7.5 6.04918 9035.01 3909.71 -25087.3 -8191.01 7697.85 -48821 -7.41393 
9 1 16.3413 1.06991 7.5 6.04918 9971.48 2848.18 -23209.3 9667.24 -2321 -39323.4 -7.41403 
10 1 19.1811 1.04212 7.5 6.04918 8625.14 3221.37 -12690.5 -9715.04 8641.31 -33812.4 -7.41456 
69 1 9.96359 2.36213 7.5 6.0492 11398.9 4908.39 -44058.5 7296.09 10502.1 -47040.7 -7.41296 
70 1 10.6856 3.58488 7.5 6.0492 7301.35 7742.04 -37055 -5239.36 17766.9 -51258.9 -7.41332 
71 1 12.1055 3.57098 7.5 6.0492 11659.4 3103.86 -36929.7 8899.9 12699.4 -45524.1 -7.41333 
72 1 12.8035 2.33434 7.5 6.0492 8247.82 5580.23 -30975.7 -6777.97 11904 -52232.3 -7.41363 
73 1 14.2234 2.32045 7.5 6.0492 10894.8 2778.59 -30415.9 9395.13 4424.05 -44079.1 -7.41367 
74 1 14.9454 3.5432 7.5 6.0492 6992 5231.19 -21166.6 -7316.81 14139.2 -47973.1 -7.41413 
75 1 16.3653 3.5293 7.5 6.0492 11271.5 1890.02 -25112.3 10492.7 4605.15 -36120.6 -7.41394 
76 1 17.0633 2.29266 7.5 6.0492 7848.09 3867.22 -16296 -8671.18 10606.2 -42259 -7.41438 
77 1 18.4832 2.27876 7.5 6.0492 10456.5 2293.7 -19212.3 10634.9 -1839.19 -29923 -7.41423 
78 1 19.2052 3.50151 7.5 6.0492 6682.44 4295.37 -8033.44 -9099.79 12149.8 -33791.2 -7.4148 
187 1 9.98766 4.82152 7.5 6.0492 12208.4 3597.71 -42134.9 8135.23 21993 -43229.9 -7.41306 
188 1 10.7097 6.04427 7.5 6.0492 4785.47 9336.74 -32233.6 -4387.35 25451.3 -47869.6 -7.41357 
189 1 12.1296 6.03038 7.5 6.0492 12360 2068.53 -35151.7 9620.37 21407 -40522.3 -7.41343 
190 1 12.8275 4.79373 7.5 6.0492 5989.69 7126.39 -26717.6 -5840.67 19205.3 -49985.5 -7.41385 
191 1 14.2475 4.77984 7.5 6.0492 11922.7 1840.53 -30599.4 10183.4 12487.5 -39892.1 -7.41366 
192 1 14.9695 6.00259 7.5 6.0492 4726.28 6801.11 -16405.2 -6479.43 18725 -45067.5 -7.41438 
193 1 16.3894 5.98869 7.5 6.0492 12257 1282.28 -25756.1 11035.2 10283.9 -31345.6 -7.4139 
194 1 17.0873 4.75205 7.5 6.0492 5775.42 5271.29 -11690.4 -7874.74 14738.5 -40831.7 -7.41461 
195 1 18.5073 4.73816 7.5 6.0492 11720.9 1739.64 -21519 11150 3120.48 -26245.8 -7.41412 
196 1 19.2292 5.9609 7.5 6.0492 4630.37 5670.47 -3045.02 -8473.73 14330.3 -32286.6 -7.41505 
305 1 10.0117 7.28092 7.5 6.0492 12580.1 2419.15 -38271.6 8726.05 30685.6 -37810.9 -7.41326 
306 1 10.7337 8.50367 7.5 6.0492 2148.15 10941.5 -26608.5 -3721.04 29708.5 -42806 -7.41385 
307 1 12.1537 8.48977 7.5 6.0492 12745.1 1206.39 -31834.8 10034.5 27225.9 -34061.9 -7.4136 
308 1 12.8516 7.25313 7.5 6.0492 3525.47 8760.41 -21597.9 -5051.89 23883.2 -45786.3 -7.41411 
309 1 14.2715 7.23923 7.5 6.0492 12607.8 1128.93 -29335.6 10690.3 18502.5 -34113.1 -7.41372 
310 1 14.9935 8.46198 7.5 6.0492 2406.39 8458.04 -11339.4 -5814.55 20759 -40580 -7.41463 
311 1 16.4135 8.44809 7.5 6.0492 12992.1 914.996 -25251.9 11269.7 13986 -25375.9 -7.41393 
312 1 17.1114 7.21144 7.5 6.0492 3592.33 6833.84 -6752.29 -7189.93 16973.2 -37785.8 -7.41487 
313 1 18.5313 7.19755 7.5 6.0492 12727.5 1463.3 -22795.8 11401.6 6797.85 -21452 -7.41405 
314 1 19.2533 8.4203 7.5 6.0492 2589.62 7175.68 1838.54 -7958.25 14752.1 -29697.6 -7.4153 
11 1 20.601 1.02822 7.5 6.04918 9544.09 3134.62 -13353.5 10645.4 -6753.88 -22401.6 -7.41452 
12 1 23.4409 1.00043 7.5 6.04918 8384.47 4226.36 -5287.43 -10535 10660.9 -16019.1 -7.41492 
13 1 24.8608 0.986537 7.5 6.04918 9378.5 4841.09 -8384.35 10832 -10602.5 -6815.34 -7.41476 
14 1 27.7007 0.958747 7.5 6.04918 8422.25 5935.93 -2370.14 -10563.6 13624.1 -3809.23 -7.41505 
79 1 20.6251 3.48762 7.5 6.0492 11023.4 2527.4 -17027.8 11119.8 -2707.08 -19698.1 -7.41434 
80 1 21.323 2.25097 7.5 6.0492 7527.48 3940.51 -5841.83 -10032.1 10895.1 -25070.8 -7.4149 
81 1 22.743 2.23708 7.5 6.0492 10222.3 3577.33 -12593.5 11013.8 -7200.21 -12829.6 -7.41455 
82 1 23.465 3.45983 7.5 6.0492 6479.5 4940.91 232.141 -10285.5 12600.7 -16977.7 -7.41521 
83 1 24.8849 3.44593 7.5 6.0492 11027.1 4545.79 -13454.9 10914.9 -8064.23 -4878.75 -7.41449 
84 1 25.5828 2.20929 7.5 6.0492 7406.55 5269.55 -422.635 -10647.9 12992.7 -9555.26 -7.41516 
85 1 27.0028 2.19539 7.5 6.0492 10294.1 5701.19 -10246.7 10650.6 -11040.6 -1032.06 -7.41465 
86 1 27.7248 3.41814 7.5 6.0492 6485.49 6246.4 4028.87 -10650 15474.1 -5592.73 -7.41538 
197 1 20.6492 5.94701 7.5 6.0492 12283.6 2296.71 -19842.3 11336.9 664.415 -16089.3 -7.41419 
198 1 21.3471 4.71037 7.5 6.0492 5582.2 5048.36 -640.708 -9540.08 12926 -24965.9 -7.41517 
199 1 22.767 4.69647 7.5 6.0492 11707.2 3357.16 -16669.4 11154.7 -4258.86 -10219.1 -7.41434 
200 1 23.489 5.91922 7.5 6.0492 4554.93 5953.3 5785.02 -9963.57 13591.7 -17284.2 -7.41549 
201 1 24.909 5.90533 7.5 6.0492 12511 4586.15 -17850.9 10794.2 -5774.04 -2840.99 -7.41427 
202 1 25.6069 4.66868 7.5 6.0492 5502.27 5968.82 5572.12 -10496.4 14332.7 -10828.4 -7.41547 
203 1 27.0268 4.65479 7.5 6.0492 11954.4 5724.64 -15518.8 10460.9 -8707.8 392.422 -7.41437 
204 1 27.7488 5.87754 7.5 6.0492 4582.95 6804.18 10411.9 -10610.5 16559.9 -7524.39 -7.41571 
315 1 20.6732 8.4064 7.5 6.0492 13337.3 2320.01 -21776.8 11298.5 2891.65 -11874.3 -7.41409 
316 1 21.3712 7.16976 7.5 6.0492 3611 6337.52 4519.22 -9091.07 13649.6 -23931.3 -7.41543 
317 1 22.7911 7.15586 7.5 6.0492 12988.4 3402.01 -19959.6 11089.7 -1966.06 -7216.61 -7.41417 
318 1 23.5131 8.37861 7.5 6.0492 2695.19 7093.91 11011.9 -9665.68 13389.3 -17204.4 -7.41576 
319 1 24.933 8.36472 7.5 6.0492 13799.4 4834.03 -21461.5 10505.5 -4022.59 -877.036 -7.41408 
320 1 25.631 7.12807 7.5 6.0492 3632.97 6824.84 11380.4 -10312.2 14727.1 -11956.7 -7.41577 
321 1 27.0509 7.11418 7.5 6.0492 13423.3 5943.7 -20051.5 10146.4 -6617.63 1501.4 -7.41414 
322 1 27.7729 8.33693 7.5 6.0492 2780.26 7454.9 16467.8 -10512.1 16722.4 -9720.6 -7.41603 
15 1 29.1206 0.944852 7.5 6.04918 9553.49 6732.47 -6960.71 10322.2 -13590.8 594.323 -7.4148 
16 1 31.9605 0.917062 7.5 6.04918 8785.32 7019.64 -1551.7 -9853.54 17121.4 -1715.48 -7.41507 
17 1 33.3804 0.903167 7.5 6.04918 10063.6 7507.03 -6358.77 9295.56 -15752.5 -2268.28 -7.41481 
18 1 36.2203 0.875378 7.5 6.04918 9436.06 6546.55 51.1401 -8587.82 20613.3 -9084.08 -7.41513 
19 1 37.6402 0.861483 7.5 6.04918 10815 6480.92 -3912.13 7969.48 -17335.2 -12645.8 -7.41492 
87 1 29.1447 3.40425 7.5 6.0492 11339.1 6673.51 -12925.5 10112.7 -11091.5 1784.53 -7.41449 
88 1 29.8426 2.1676 7.5 6.0492 7570.73 6634.8 1494.91 -10434.6 16550.4 -2395.6 -7.41524 
89 1 31.2626 2.15371 7.5 6.0492 10699.9 7277.98 -9938.04 9745.58 -13316.4 918.662 -7.41463 
90 1 31.9846 3.37646 7.5 6.0492 6764.08 6969.04 5624.07 -10146.4 20013 -3939.92 -7.41544 
91 1 33.4045 3.36256 7.5 6.0492 11931.2 7591.47 -12737.2 8976.18 -12182 -1594.07 -7.41447 
92 1 34.1024 2.12592 7.5 6.0492 8039.57 6864 2688.53 -9479.72 20812.5 -5472.44 -7.41528 
93 1 35.5224 2.11202 7.5 6.0492 11376.6 7243.48 -8825.92 8528.44 -14447.1 -6442.8 -7.41467 
94 1 36.2444 3.33477 7.5 6.0492 7314.7 6251.61 7813.7 -8923.55 25064 -11284.3 -7.41554 
95 1 37.6643 3.32088 7.5 6.0492 12690.8 6622.77 -10360.6 7727.32 -12202.1 -12178.4 -7.41458 
96 1 38.3622 2.08423 7.5 6.0492 8755.55 5435.44 5738.67 -8011.55 24913.5 -15857.5 -7.41543 
205 1 29.1688 5.86364 7.5 6.0492 12966.1 6861.83 -18193.9 9768.22 -8608.65 2406.76 -7.41422 
206 1 29.8667 4.627 7.5 6.0492 5622.72 6906.95 8360.22 -10545.6 18468.6 -4681 -7.41559 
207 1 31.2866 4.6131 7.5 6.0492 12467.1 7442.77 -15803.5 9381.35 -10340.8 1418.46 -7.41433 
208 1 32.0086 5.83585 7.5 6.0492 4792.64 7097.51 12945.2 -10283.9 22137.5 -6848.29 -7.41583 
209 1 33.4286 5.82196 7.5 6.0492 13602.2 7823.05 -18264.9 8594.89 -8590.55 -1840.24 -7.41419 
210 1 34.1265 4.58531 7.5 6.0492 5991.51 6791.33 10358.2 -9711.78 24079.7 -8153.96 -7.41568 
211 1 35.5464 4.57142 7.5 6.0492 13164.5 7460.38 -14815.4 8185.3 -10087.9 -6399.41 -7.41436 
212 1 36.2684 5.79417 7.5 6.0492 5222.38 6078.73 16005.6 -9106.16 28606.4 -14334.2 -7.41597 
213 1 37.6884 5.78027 7.5 6.0492 14298.8 6836.65 -15776.8 7490.43 -7163.05 -12625.6 -7.4143 
214 1 38.3863 4.54363 7.5 6.0492 6594.44 5167.44 14036.6 -8223.25 29676.6 -18299.7 -7.41586 
323 1 29.1928 8.32303 7.5 6.0492 14372.3 7169.26 -22618.1 9356.85 -6356.06 2418.57 -7.41399 
324 1 29.8908 7.08639 7.5 6.0492 3740.49 7281.25 15120.2 -10565.6 19551.5 -7448 -7.41595 
325 1 31.3107 7.0725 7.5 6.0492 14013.2 7703.68 -20825.4 8979.83 -7457.19 1133.46 -7.41407 
326 1 32.0327 8.29524 7.5 6.0492 2934.83 7271.66 20124.8 -10307.8 23328 -10429.3 -7.4162 
327 1 33.4526 8.28135 7.5 6.0492 14996.9 8076.66 -22812.5 8241.23 -5208.53 -2938.89 -7.41395 
328 1 34.1506 7.04471 7.5 6.0492 4009.61 6765.2 18167.3 -9826.83 26409.6 -11623.8 -7.41609 
329 1 35.5705 7.03081 7.5 6.0492 14669 7682.68 -19801.3 7885.02 -5892.32 -7268.55 -7.4141 
330 1 36.2925 8.25356 7.5 6.0492 3236.51 5915.64 24353 -9158.7 30997.2 -18139.8 -7.41642 
331 1 37.7124 8.23967 7.5 6.0492 15558 7001.28 -20098.1 7356.49 -2531.36 -13848.4 -7.41408 
332 1 38.4104 7.00302 7.5 6.0492 4472.93 4911.92 22790 -8327.01 33266 -21491.9 -7.41633 
20 1 40.4801 0.833693 7.5 6.04918 10263.8 4397.22 4469.43 -7020.18 23614.1 -21250.8 -7.41535 
21 1 41.9 0.819798 7.5 6.04918 11657.1 3834.29 1827.33 6540.39 -18645.6 -24943.7 -7.41521 
22 1 44.7399 0.792008 7.5 6.04918 11119.7 1180.25 12138.1 -5388.62 25830.3 -32171.4 -7.41576 
23 1 46.1598 0.778113 7.5 6.04918 12434.5 371.235 10644.6 5136.44 -19907.1 -33479.1 -7.41568 
97 1 39.7822 2.07034 7.5 6.0492 12187.1 5354.26 -4819.67 7197.43 -15060.9 -18597.3 -7.41487 
98 1 40.5042 3.29309 7.5 6.0492 8066.84 4004.05 12601.1 -7264.9 29517 -23032.6 -7.41578 
99 1 41.9241 3.27919 7.5 6.0492 13457.5 3977.53 -4534.76 6497.33 -12080.5 -24425 -7.41488 
100 1 42.622 2.04255 7.5 6.0492 9599.5 2632.22 11935.6 -6314.69 28174.1 -27890.3 -7.41575 
101 1 44.042 2.02865 7.5 6.0492 12967.9 2172.46 2620.82 5876.27 -15712 -29609.7 -7.41526 
102 1 44.764 3.2514 7.5 6.0492 8901.25 813.506 20451.7 -5479.61 32659.9 -33313.4 -7.4162 
103 1 46.1839 3.23751 7.5 6.0492 14084.6 496.935 4361.38 5313.98 -12451.7 -32786.9 -7.41536 
104 1 46.8818 2.00086 7.5 6.0492 10431.4 -745.413 20916.4 -4634.07 30279.7 -35932.9 -7.41622 
105 1 48.3018 1.98697 7.5 6.0492 13591 -1350.26 12457.6 4600.3 -16683.9 -34673.1 -7.41579 
215 1 39.8062 4.52973 7.5 6.0492 13901 5569.37 -10688.5 7033.57 -9206.04 -18545 -7.41456 
216 1 40.5282 5.75248 7.5 6.0492 5849.5 3706.85 21469.3 -7386.09 34301.2 -25497.6 -7.41625 
217 1 41.9482 5.73859 7.5 6.0492 14902.1 4165.44 -9749.02 6512.59 -5813.62 -24547.9 -7.41461 
218 1 42.6461 4.50194 7.5 6.0492 7354.61 2328.12 20641.8 -6414.07 34067.8 -29637.8 -7.41621 
219 1 44.066 4.48805 7.5 6.0492 14520.6 2374.49 -3104.98 5957.41 -8758.07 -29254 -7.41496 
220 1 44.788 5.7108 7.5 6.0492 6593.94 553.466 29754.2 -5490.21 38157.5 -34784.4 -7.41669 
221 1 46.208 5.6969 7.5 6.0492 15289.6 692.92 -771.942 5579.4 -5522.42 -32366.5 -7.4151 
222 1 46.9059 4.46026 7.5 6.0492 8156.15 -966.964 29831.9 -4600.82 36696 -36813.3 -7.41669 
223 1 48.3258 4.44636 7.5 6.0492 14921.7 -1140.2 6755.79 4884.03 -9259.7 -33965.6 -7.41549 
333 1 39.8303 6.98913 7.5 6.0492 15251 5738.27 -15437.3 6975.62 -3736.62 -19225.1 -7.41432 
334 1 40.5523 8.21188 7.5 6.0492 3712.54 3409.29 30814.6 -7395.61 37611 -28520.3 -7.41675 
335 1 41.9722 8.19798 7.5 6.0492 15921.9 4282.37 -13853.9 6679.23 -273.714 -25144.8 -7.41441 
336 1 42.6702 6.96134 7.5 6.0492 5101.29 2035.18 30104 -6440.01 38504.7 -31849 -7.41671 
337 1 44.0901 6.94744 7.5 6.0492 15625.2 2532.86 -7704.42 6183.2 -2477.88 -29281 -7.41473 
338 1 44.8121 8.17019 7.5 6.0492 4325.93 311.331 39811.1 -5428.41 41849.4 -36469.8 -7.41723 
339 1 46.232 8.1563 7.5 6.0492 16002.4 851.181 -4912.08 6014.34 334.02 -32056.8 -7.41489 
340 1 46.93 6.91965 7.5 6.0492 5811.66 -1148.67 39731.2 -4537.64 41399.1 -37790.5 -7.41722 
24 1 48.9997 0.750324 7.5 6.04918 11868.3 -2195.29 21924.6 -3851.27 27202.7 -36997.7 -7.41628 
25 1 50.4196 0.736429 7.5 6.04918 13039 -2972.07 20944.1 3804.34 -21186.1 -34586.6 -7.41624 
26 1 53.2595 0.708639 7.5 6.04918 12425.3 -4974.11 31725.1 -2464.47 27850.5 -33536.3 -7.41681 
27 1 54.6794 0.694744 7.5 6.04918 13434.4 -5533.88 30461.2 2533.53 -22404.7 -27423.4 -7.41675 
28 1 57.5193 0.666954 7.5 6.04918 12767.6 -6773.51 39259.8 -1209.14 27964.7 -22386.4 -7.41721 
106 1 49.0238 3.20972 7.5 6.0492 9688.28 -2465.25 30295.3 -3806.03 34324.4 -37477.1 -7.41672 
107 1 50.4437 3.19582 7.5 6.0492 14495.5 -2854.28 14645.8 4127.06 -13479.4 -33754 -7.41591 
108 1 51.1416 1.95918 7.5 6.0492 11132.5 -3846.94 31001.2 -3115.6 31290.6 -36439.4 -7.41676 
109 1 52.5616 1.94528 7.5 6.0492 14002.1 -4368.18 22636.9 3344.96 -17940.7 -31566.7 -7.41634 
110 1 53.2836 3.16803 7.5 6.0492 10324.4 -5134.46 40088.8 -2359.05 34805.1 -33485.5 -7.41724 
111 1 54.7035 3.15414 7.5 6.0492 14702.8 -5407.73 24058.9 2869.72 -14898.8 -26596.7 -7.41642 
112 1 55.4014 1.91749 7.5 6.0492 11633.7 -6117.88 39922.1 -1793.77 31511.3 -28708.1 -7.41724 
113 1 56.8213 1.9036 7.5 6.0492 14223.1 -6420.65 30869.9 2069.71 -19218.9 -20813 -7.41678 
114 1 57.5433 3.12635 7.5 6.0492 10749.9 -6852.07 47589.9 -1139.16 34619.6 -22007 -7.41765 
224 1 49.0478 5.66911 7.5 6.0492 7343.71 -2587.84 39815.4 -3719.54 39947.7 -37925.8 -7.41722 
225 1 50.4678 5.65522 7.5 6.0492 15428.3 -2601.2 9396.03 4538.74 -6496.86 -32901.2 -7.41565 
226 1 51.1657 4.41857 7.5 6.0492 8880.52 -3933.24 39985.4 -2993.94 37681.9 -36552.9 -7.41723 
227 1 52.5856 4.40468 7.5 6.0492 15098.2 -4121.53 16816.2 3706.12 -10598.8 -30675.6 -7.41604 
228 1 53.3076 5.62743 7.5 6.0492 7988.23 -5093.63 49674.8 -2234.15 40165.5 -33185.8 -7.41775 
229 1 54.7276 5.61353 7.5 6.0492 15388.4 -5069.29 18556.7 3265.34 -8250.26 -25645.6 -7.41615 
230 1 55.4255 4.37689 7.5 6.0492 9434.43 -6077.16 48896.5 -1663.42 37606.5 -28325.7 -7.41771 
231 1 56.8454 4.36299 7.5 6.0492 15128.8 -6126 24862 2355.43 -12217.5 -20013.9 -7.41648 
232 1 57.5674 5.58574 7.5 6.0492 8442.63 -6681.83 57159.7 -1047.67 39657 -21362.2 -7.41815 
341 1 48.3499 6.90576 7.5 6.0492 15729.7 -922.006 2067.01 5321.92 -2788.94 -33299.2 -7.41526 
342 1 49.0719 8.12851 7.5 6.0492 4988.75 -2653.45 50287 -3602.66 43494.3 -38266.8 -7.41778 
343 1 50.4918 8.11461 7.5 6.0492 15817 -2313.73 4921.66 5107.12 -885.945 -31896.8 -7.41542 
344 1 51.1898 6.87797 7.5 6.0492 6494.51 -3932.76 50091.3 -2876.86 42175.6 -36480.7 -7.41777 
345 1 52.6097 6.86407 7.5 6.0492 15612.7 -3787.13 11820.9 4200.1 -4428.53 -29636.5 -7.41579 
346 1 53.3317 8.08682 7.5 6.0492 5592.04 -4949.49 60327.2 -2108.32 43273.5 -32607.7 -7.41831 
347 1 54.7516 8.07293 7.5 6.0492 15495.5 -4612 13585.5 3776.75 -3182.22 -24481.2 -7.4159 
348 1 55.4496 6.83628 7.5 6.0492 7045.31 -5901.36 59056.2 -1553.4 41708.6 -27660.5 -7.41824 
349 1 56.8695 6.82239 7.5 6.0492 15414.8 -5668.8 19495.7 2724.99 -6517.2 -19087.7 -7.41621 
350 1 57.5915 8.04514 7.5 6.0492 6036.22 -6370.59 67849.5 -966.375 42365.9 -20467.3 -7.41871 
29 1 58.9392 0.653059 7.5 6.04918 13642 -7048.96 37033.3 1292.86 -23414.1 -13637 -7.41711 
30 1 61.7791 0.62527 7.5 6.04918 12910.6 -7520.16 42757.7 -31.8591 27708.6 -6214.88 -7.4174 
31 1 63.199 0.611375 7.5 6.04918 13698.5 -7505.22 39185 59.3927 -24077.9 3510.37 -7.41722 
32 1 66.0389 0.583585 7.5 6.04918 12872.1 -7239.7 41389.6 1124.93 27169.2 11209 -7.41733 
33 1 67.4588 0.56969 7.5 6.04918 13616.2 -6925.86 36454 -1181.28 -24319.8 20050.8 -7.41707 
115 1 58.9633 3.11245 7.5 6.0492 14781 -6909.34 30504.5 1512.22 -16224.6 -12994.9 -7.41678 
116 1 59.6612 1.87581 7.5 6.0492 11914.3 -7363.91 45589.5 -625.681 31297.9 -14499.9 -7.41755 
117 1 61.0811 1.86191 7.5 6.0492 14312.7 -7401.04 35311.1 759.86 -20195.8 -4986.11 -7.41702 
118 1 61.8031 3.08466 7.5 6.0492 10942.3 -7562.27 51042.3 -68.5184 34232.7 -5686.14 -7.41783 
119 1 63.2231 3.07077 7.5 6.0492 14806.2 -7361.24 32579.1 87.0793 -17014.7 3837.92 -7.41689 
120 1 63.921 1.83412 7.5 6.0492 11978.5 -7590.1 46665.7 468.76 30894.5 2868.93 -7.41761 
121 1 65.3409 1.82023 7.5 6.0492 14311.9 -7340.59 34989 -566.201 -20646.4 12217.3 -7.41701 
122 1 66.0629 3.04298 7.5 6.0492 10897.6 -7293.38 49621.9 965.369 33859.3 11796.2 -7.41776 
123 1 67.4829 3.02908 7.5 6.0492 14800.8 -6789.32 29848.3 -1334.21 -17067.6 20031.1 -7.41674 
233 1 58.9873 5.57185 7.5 6.0492 15302 -6498.43 24754.9 1736.77 -9946.64 -12321.6 -7.41649 
234 1 59.6853 4.3352 7.5 6.0492 9763.56 -7243.46 54521 -563.505 37158.3 -13919.6 -7.41801 
235 1 61.1052 4.32131 7.5 6.0492 15122.9 -7076.34 29157.7 851.96 -13447.1 -4523.83 -7.41671 
236 1 61.8272 5.54406 7.5 6.0492 8656.8 -7332.42 60565.4 -63.3335 39175.6 -5035.56 -7.41833 
237 1 63.2471 5.53016 7.5 6.0492 15287.8 -6928.12 26717.9 53.5451 -10839.9 3994.03 -7.41659 
238 1 63.9451 4.29352 7.5 6.0492 9844.23 -7453.37 55545.9 422.796 36802 3451.36 -7.41807 
239 1 65.365 4.27962 7.5 6.0492 15148.6 -7021.24 28805.7 -703.473 -13837.1 12237.3 -7.4167 
240 1 66.087 5.50237 7.5 6.0492 8609.77 -7083.53 59094.1 873.037 39046.5 12318.9 -7.41825 
241 1 67.5069 5.48848 7.5 6.0492 15378 -6393.54 24056.3 -1610.94 -10616 19669.1 -7.41645 
351 1 59.0114 8.03124 7.5 6.0492 15227.6 -5904.83 19354.8 2015.07 -5352.49 -11574.6 -7.41622 
352 1 59.7093 6.7946 7.5 6.0492 7385.82 -6954.75 64658.2 -517.292 41013 -13149.4 -7.41854 
353 1 61.1293 6.7807 7.5 6.0492 15296.5 -6547.05 23543.5 961.663 -8034.25 -4119.44 -7.41643 
354 1 61.8513 8.00345 7.5 6.0492 6251.07 -6942.49 71226.9 -64.1144 41801 -4315.51 -7.41889 
355 1 63.2712 7.98956 7.5 6.0492 15169.9 -6293.37 21156.1 2.06219 -6349.87 3975.13 -7.41632 
356 1 63.9691 6.75291 7.5 6.0492 7471.79 -7141.89 65635.5 377.163 40757.9 4026.9 -7.4186 
357 1 65.3891 6.73902 7.5 6.0492 15352.9 -6504.5 23183.9 -894.289 -8311.45 11973.6 -7.41641 
358 1 66.1111 7.96177 7.5 6.0492 6203.75 -6721.79 69702.6 783.29 41997.7 12694.6 -7.41881 
359 1 67.531 7.94787 7.5 6.0492 15365.4 -5829.33 18664.1 -1974.7 -5759.34 18917.6 -7.41618 
34 1 70.2987 0.5419 7.5 6.04918 12648.6 -5914.95 35440 2312.57 26363.9 25882.4 -7.41701 
35 1 71.7186 0.528005 7.5 6.04918 13369.6 -5283.5 29483.5 -2451.34 -24117.6 32119.1 -7.4167 
36 1 74.5585 0.500216 7.5 6.04918 12220.8 -3538.99 26248.3 3579.58 25276.6 34372.1 -7.41651 
37 1 75.9784 0.486321 7.5 6.04918 12919 -2620.68 19899.2 -3788.63 -23465.8 36800.7 -7.41618 
124 1 68.1808 1.79244 7.5 6.0492 11829.6 -6806.46 42873.1 1577.25 30357.1 19447.5 -7.4174 
125 1 69.6007 1.77854 7.5 6.0492 14209.9 -6232.41 29995.3 -1883.42 -20520.9 26815 -7.41674 
126 1 70.3227 3.00129 7.5 6.0492 10616 -6024.03 43620.4 2076.14 33408.9 26547.3 -7.41743 
127 1 71.7427 2.9874 7.5 6.0492 14716.4 -5154 22923.9 -2692.56 -16478.5 31813.9 -7.41636 
128 1 72.4406 1.75076 7.5 6.0492 11462.3 -4979.49 35052.2 2779.57 29576.3 31450.2 -7.41698 
129 1 73.8605 1.73686 7.5 6.0492 13951.3 -4052.78 21473.5 -3190.11 -19921.2 35327.5 -7.41627 
130 1 74.5825 2.95961 7.5 6.0492 10105.8 -3735.61 34382.8 3356.17 32571.7 35217.7 -7.41694 
131 1 76.0025 2.94572 7.5 6.0492 14466.2 -2481.38 13366.7 -3982.82 -15548.3 36318.4 -7.41584 
132 1 76.7004 1.70907 7.5 6.0492 10878.9 -2173.49 24978.3 4133.1 28364.2 36077.1 -7.41644 
242 1 68.2049 4.25183 7.5 6.0492 9671.38 -6716.88 51703.8 1437.72 36595.9 20009.7 -7.41786 
243 1 69.6248 4.23794 7.5 6.0492 15188.3 -5946.96 23891.3 -2189.55 -13341 26461.6 -7.41643 
244 1 70.3468 5.46069 7.5 6.0492 8304.72 -5907.49 53038.7 1923.28 39057.2 27055.3 -7.41793 
245 1 71.7667 5.44679 7.5 6.0492 15500.5 -4830.77 17318 -3101.62 -9504.15 31157 -7.41608 
246 1 72.4647 4.21015 7.5 6.0492 9254.66 -4988.52 43832.2 2610.41 36211.1 32133.4 -7.41744 
247 1 73.8846 4.19625 7.5 6.0492 15148.4 -3803.54 15479 -3532.68 -12294.9 34793.6 -7.41597 
248 1 74.6066 5.419 7.5 6.0492 7771.29 -3760.65 43719.7 3212.9 38596.6 36000.5 -7.41743 
249 1 76.0265 5.40511 7.5 6.0492 15518.2 -2224.36 7931.44 -4360.7 -8129.29 35692.5 -7.41557 
250 1 76.7245 4.16846 7.5 6.0492 8627 -2306.07 33686.8 4020.92 35120.2 37104.8 -7.4169 
360 1 68.2289 6.71123 7.5 6.0492 7292.24 -6474.51 61737.2 1312.42 40988.5 20397.9 -7.41839 
361 1 69.6489 6.69733 7.5 6.0492 15559.7 -5516.82 18486.8 -2608.79 -7319.77 25702.7 -7.41616 
362 1 70.3709 7.92008 7.5 6.0492 5900.86 -5670.79 63565.6 1773.94 42611 27297.1 -7.41849 
363 1 71.7908 7.90619 7.5 6.0492 15719.6 -4412.09 12325.4 -3650.8 -3957.04 30061.4 -7.41583 
364 1 72.4887 6.66954 7.5 6.0492 6868.01 -4889.26 53781.8 2455.17 41147.1 32626.2 -7.41797 
365 1 73.9087 6.65565 7.5 6.0492 15784.6 -3488.4 10380.4 -4024.95 -5645.44 33937.3 -7.41571 
366 1 74.6307 7.8784 7.5 6.0492 5386.52 -3711.72 54090 3057.02 42723.3 36586.3 -7.41798 
367 1 76.0506 7.8645 7.5 6.0492 16046.6 -1956.22 3356.71 -4906.67 -1905.02 34804.3 -7.41534 
368 1 76.7485 6.62786 7.5 6.0492 6254.67 -2381.87 43473.5 3902.27 40360.8 38127 -7.41742 
38 1 78.8183 0.458531 7.5 6.04918 11584.5 -317.399 15908.9 4959.83 23890.1 34705.7 -7.41596 
39 1 80.2382 0.444636 7.5 6.04918 12255.5 732.415 9936.92 -5227.4 -22342.3 33096.6 -7.41564 
40 1 83.0781 0.416846 7.5 6.04918 10785.8 3166.82 6711.73 6448.36 22195.7 27277.9 -7.41547 
41 1 84.498 0.402952 7.5 6.04918 11436 4055.27 1806.79 -6756.6 -20710.5 22730 -7.41521 
133 1 78.1203 1.69518 7.5 6.0492 13480.5 -960.314 11395.3 -4519.7 -19008.6 35681.9 -7.41573 
134 1 78.8423 2.91793 7.5 6.0492 9401.47 -608.111 23992.3 4844.6 30992.4 35857.6 -7.41638 
135 1 80.2623 2.90403 7.5 6.0492 13987 900.109 3366.93 -5253.02 -14604.6 32523.7 -7.4153 
136 1 80.9602 1.66739 7.5 6.0492 10117.2 1241.02 14921.6 5647.22 26561.7 32438.6 -7.4159 
137 1 82.3801 1.65349 7.5 6.0492 12794.8 2508.46 2076.01 -5910.18 -17900.5 28157.5 -7.41523 
138 1 83.1021 2.87624 7.5 6.0492 8581.29 2816.33 14697.5 6495.36 28458.2 28810.8 -7.41589 
139 1 84.5221 2.86235 7.5 6.0492 13292.9 4245.66 -4846.16 -6559.3 -13821.6 22076.5 -7.41487 
140 1 85.22 1.6257 7.5 6.0492 9268.38 4518.32 6963.33 7252.2 24123.1 22315.9 -7.41549 
141 1 86.6399 1.61181 7.5 6.0492 11972.8 5464.15 -4553.88 -7354.61 -16605.5 15907.3 -7.41488 
251 1 78.1444 4.15457 7.5 6.0492 14917.2 -724.626 5442.75 -4747.63 -11219.3 35175.5 -7.41542 
252 1 78.8664 5.37732 7.5 6.0492 7071.98 -778.289 33171.9 4784.14 36967.4 37229 -7.41687 
253 1 80.2863 5.36342 7.5 6.0492 15307.7 1128.39 -2032.33 -5447.71 -7186.3 32183.5 -7.41503 
254 1 80.9843 4.12678 7.5 6.0492 7857.69 1004.26 23494.2 5661.76 32869.6 33994.1 -7.41636 
255 1 82.4042 4.11289 7.5 6.0492 14436.9 2755.95 -3949.12 -5915.97 -10542 27782.3 -7.41492 
256 1 83.1262 5.33563 7.5 6.0492 6304.75 2559.09 23580.2 6558.01 33744.4 30934.8 -7.41636 
257 1 84.5461 5.32174 7.5 6.0492 14830.4 4482.93 -10370.6 -6491.47 -7079.69 22054.2 -7.41458 
258 1 85.2441 4.0851 7.5 6.0492 7055.03 4253.39 15274.1 7408.18 29330.9 24428.8 -7.41592 
259 1 86.664 4.0712 7.5 6.0492 13747.5 5723.08 -10715.5 -7122.64 -10361.8 15587.1 -7.41456 
369 1 78.1685 6.61396 7.5 6.0492 15858.4 -497.356 558.67 -5132.31 -4184.66 34641.6 -7.41518 
370 1 78.8905 7.83671 7.5 6.0492 4742.59 -920.029 43235.9 4678.31 41288.6 38665.8 -7.41741 
371 1 80.3104 7.82282 7.5 6.0492 16163.6 1303.68 -6380.06 -5809.34 -683.036 31940.3 -7.41481 
372 1 81.0083 6.58617 7.5 6.0492 5541.8 784.371 32968.9 5633.73 37872.8 35883.1 -7.41686 
373 1 82.4283 6.57228 7.5 6.0492 15663.5 2954.58 -8829.44 -6055.9 -3697.1 27788 -7.41467 
374 1 83.1503 7.79503 7.5 6.0492 4076.45 2301.96 33112.2 6535.57 37650.5 33488.6 -7.41687 
375 1 84.5702 7.78113 7.5 6.0492 15975.4 4648.58 -14772.1 -6560.49 -956.063 22533.8 -7.41436 
376 1 85.2681 6.54449 7.5 6.0492 4842.65 3993.48 24225.1 7482.35 33450.2 27231.6 -7.4164 
377 1 86.6881 6.53059 7.5 6.0492 15191.7 5944.53 -15782.4 -6977.23 -4403.21 15995.6 -7.4143 
490 1 81.0324 9.04557 7.5 6.0492 3322.54 575.889 43079.6 5522.02 41189.5 37910.8 -7.4174 
491 1 82.4523 9.03167 7.5 6.0492 16452.2 3071.02 -12664.4 -6367.66 2167.26 28009.7 -7.41447 
494 1 85.2922 9.00388 7.5 6.0492 2755.55 3727 33534.8 7436.66 36205 30532 -7.4169 
495 1 86.7121 8.98999 7.5 6.0492 16261.4 6090.06 -19744.5 -6965.59 912.197 16990.1 -7.4141 
42 1 87.3379 0.375162 7.5 6.04918 9933.55 6020.54 381.932 7966.86 20187.7 15314.3 -7.41514 
43 1 88.7578 0.361267 7.5 6.04918 10585.4 6412.73 -3103.37 -8280.18 -18557.1 10196.8 -7.41496 
44 1 91.5977 0.333477 7.5 6.04918 9178.33 7399.85 -2657.61 9353.27 17860.2 4280.78 -7.415 
45 1 93.0176 0.319582 7.5 6.04918 9861.63 7095.83 -4898.91 -9612.8 -15938.1 1530.01 -7.41489 
46 1 95.8574 0.291792 7.5 6.04918 8666.4 7000.67 -3645.58 10388.2 15223.5 -31.4392 -7.41497 
142 1 87.3619 2.83456 7.5 6.0492 7766.76 5692.84 8153.85 8153.8 25034.2 17195.3 -7.41555 
143 1 88.7819 2.82066 7.5 6.0492 12488.7 6578.85 -9787.36 -7906.08 -13113.2 9380.11 -7.41461 
144 1 89.4798 1.58402 7.5 6.0492 8469.32 6752.95 2212.99 8782.89 21159.4 10175 -7.41524 
145 1 90.8997 1.57012 7.5 6.0492 11160.3 6999.59 -7733.21 -8758.87 -15019.2 4420.37 -7.41473 
146 1 91.6217 2.79287 7.5 6.0492 7097.27 7214.28 4710.49 9574.14 21104.5 6352.25 -7.41538 
147 1 93.0417 2.77898 7.5 6.0492 11736 7151.14 -11414.5 -9201.54 -12136.8 405.611 -7.41455 
148 1 93.7396 1.54233 7.5 6.0492 7866.3 7324.56 227.649 10003.2 17933.5 1918.81 -7.41516 
149 1 95.1595 1.52844 7.5 6.0492 10520.2 6690.21 -8356.53 -9942.74 -12973.3 -372.813 -7.41472 
150 1 95.8815 2.75119 7.5 6.0492 6689.58 7079.3 3084.37 10477 17300.2 1980.77 -7.41532 
260 1 87.386 5.29395 7.5 6.0492 5590.36 5469.56 16545.2 8318.34 29046.1 19959 -7.416 
261 1 88.8059 5.28006 7.5 6.0492 14157.4 6830.93 -15494.2 -7604.78 -7675.49 9422.2 -7.41432 
262 1 89.5039 4.04341 7.5 6.0492 6349.02 6584.63 10078.4 9017.68 24840 12660.5 -7.41566 
263 1 90.9238 4.02952 7.5 6.0492 12979.3 7225.92 -13947.3 -8380.57 -10345.8 3901.19 -7.41441 
264 1 91.6458 5.25227 7.5 6.0492 5044.17 7183.54 12401.2 9749.56 23616.2 9342.19 -7.41579 
265 1 93.0657 5.23837 7.5 6.0492 13438.1 7376.13 -17149.1 -8800.41 -8263.95 32.4331 -7.41425 
266 1 93.7637 4.00173 7.5 6.0492 5857.49 7396.64 7440.89 10184.8 20171.7 4402.3 -7.41554 
267 1 95.1836 3.98783 7.5 6.0492 12300.1 6803.04 -14341.7 -9592.32 -9801.93 -1436.86 -7.41441 
268 1 95.9056 5.21058 7.5 6.0492 4742.7 7388.07 9915.65 10523.3 18668.2 4585.43 -7.41568 
378 1 87.4101 7.75334 7.5 6.0492 3498.71 5247.64 25283.7 8367.04 31939.6 23460.4 -7.41646 
379 1 88.83 7.73945 7.5 6.0492 15510.4 7049.1 -20136.3 -7384.18 -2591 10232.9 -7.41408 
380 1 89.5279 6.50281 7.5 6.0492 4269.53 6446.82 18274 9145.05 27614 16032.9 -7.41609 
381 1 90.9479 6.48891 7.5 6.0492 14543.9 7479.32 -19214 -8024.12 -5785.87 4212.02 -7.41413 
382 1 91.6699 7.71166 7.5 6.0492 3093.01 7187.91 20126.9 9803.38 25194.6 13154.5 -7.4162 
383 1 93.0898 7.69776 7.5 6.0492 14891.2 7650.56 -21956.7 -8404.05 -4577.4 395.797 -7.414 
384 1 93.7877 6.46112 7.5 6.0492 3902.55 7555.88 14703.6 10259.9 21596.5 7662.04 -7.41592 
385 1 95.2076 6.44723 7.5 6.0492 13877 7040.38 -19542 -9189.87 -6682.65 -1937.58 -7.41414 
386 1 95.9296 7.66998 7.5 6.0492 2889.69 7787.38 16545.5 10476.6 19136.1 7768.39 -7.41602 