 1352 1352   50    1
  0.1441231E+02  0.3198000E-08  0.5539098E-08  0.1100000E-08  0.5000000E-15
   1.0000000000000000E-004
  CAR 
 unknown system                          
   5408      1   3384

  0.1262379E-14  0.1262379E-14  0.1262379E-14  0.1000000E+01
    1      -18.383761   1.000000
    2      -18.349266   1.000000
    3      -18.347917   1.000000
    4      -18.278172   1.000000
    5      -18.277907   1.000000
    6      -18.246079   1.000000
    7      -18.245843   1.000000
    8      -18.245072   1.000000
    9      -18.243148   1.000000
   10      -18.242293   1.000000
   11      -18.240852   1.000000
   12      -18.239965   1.000000
   13      -18.211313   1.000000
   14      -18.209992   1.000000
   15      -18.140814   1.000000
   16      -18.140562   1.000000
   17      -18.137619   1.000000
   18      -18.137602   1.000000
   19      -18.137594   1.000000
   20      -18.137564   1.000000
   21      -18.108799   1.000000
   22      -18.108033   1.000000
   23      -18.106658   1.000000
   24      -18.105237   1.000000
   25      -18.103807   1.000000
   26      -18.102896   1.000000
   27      -18.067347   1.000000
   28      -18.067310   1.000000
   29      -18.001464   1.000000
   30      -18.001447   1.000000
   31      -18.001436   1.000000
   32      -18.001406   1.000000
   33      -17.962251   1.000000
   34      -17.962233   1.000000
   35      -17.962199   1.000000
   36      -17.962158   1.000000
   37      -17.962115   1.000000
   38      -17.962025   1.000000
   39      -17.931765   1.000000
   40      -17.931727   1.000000
   41      -17.927940   1.000000
   42      -17.927648   1.000000
   43      -17.926377   1.000000
   44      -17.926233   1.000000
   45      -17.827750   1.000000
   46      -17.827712   1.000000
   47      -17.827573   1.000000
   48      -17.827527   1.000000
   49      -17.827438   1.000000
   50      -17.827344   1.000000
   51      -17.822207   1.000000
   52      -17.822115   1.000000
   53      -17.822037   1.000000
   54      -17.821982   1.000000
   55      -17.821827   1.000000
   56      -17.821805   1.000000
   57      -17.793593   1.000000
   58      -17.793283   1.000000
   59      -17.791959   1.000000
   60      -17.791802   1.000000
   61      -17.717433   1.000000
   62      -17.717347   1.000000
   63      -17.717289   1.000000
   64      -17.717174   1.000000
   65      -17.688734   1.000000
   66      -17.688619   1.000000
   67      -17.688591   1.000000
   68      -17.688544   1.000000
   69      -17.688459   1.000000
   70      -17.688393   1.000000
   71      -17.647415   1.000000
   72      -17.647376   1.000000
   73      -17.647247   1.000000
   74      -17.647183   1.000000
   75      -17.584790   1.000000
   76      -17.584714   1.000000
   77      -17.584653   1.000000
   78      -17.584522   1.000000
   79      -17.515344   1.000000
   80      -17.515312   1.000000
   81      -17.515175   1.000000
   82      -17.515112   1.000000
   83      -17.508081   1.000000
   84      -17.507796   1.000000
   85      -17.437987   1.000000
   86      -17.437972   1.000000
   87      -17.405279   1.000000
   88      -17.405105   1.000000
   89      -17.405099   1.000000
   90      -17.404954   1.000000
   91      -17.403927   1.000000
   92      -17.403884   1.000000
   93      -17.402497   1.000000
   94      -17.402448   1.000000
   95      -17.401890   1.000000
   96      -17.401709   1.000000
   97      -17.401635   1.000000
   98      -17.401412   1.000000
   99      -17.377187   1.000000
  100      -17.376901   1.000000
  101      -17.307661   1.000000
  102      -17.307647   1.000000
  103      -17.298927   1.000000
  104      -17.298912   1.000000
  105      -17.298892   1.000000
  106      -17.298868   1.000000
  107      -17.275316   1.000000
  108      -17.275147   1.000000
  109      -17.275136   1.000000
  110      -17.274994   1.000000
  111      -17.273973   1.000000
  112      -17.273928   1.000000
  113      -17.272377   1.000000
  114      -17.272325   1.000000
  115      -17.271768   1.000000
  116      -17.271588   1.000000
  117      -17.271508   1.000000
  118      -17.271279   1.000000
  119      -17.169753   1.000000
  120      -17.169734   1.000000
  121      -17.169716   1.000000
  122      -17.169694   1.000000
  123      -17.125645   1.000000
  124      -17.125636   1.000000
  125      -17.125427   1.000000
  126      -17.125412   1.000000
  127      -17.125386   1.000000
  128      -17.125341   1.000000
  129      -17.090944   1.000000
  130      -17.090846   1.000000
  131      -17.090652   1.000000
  132      -17.090571   1.000000
  133      -17.021646   1.000000
  134      -17.021575   1.000000
  135      -17.021512   1.000000
  136      -17.021433   1.000000
  137      -16.997904   1.000000
  138      -16.997894   1.000000
  139      -16.997683   1.000000
  140      -16.997669   1.000000
  141      -16.997643   1.000000
  142      -16.997597   1.000000
  143      -16.963476   1.000000
  144      -16.963390   1.000000
  145      -16.963189   1.000000
  146      -16.963109   1.000000
  147      -16.894755   1.000000
  148      -16.894665   1.000000
  149      -16.894609   1.000000
  150      -16.894511   1.000000
  151      -16.883172   1.000000
  152      -16.883131   1.000000
  153      -16.883080   1.000000
  154      -16.883012   1.000000
  155      -16.757423   1.000000
  156      -16.757384   1.000000
  157      -16.757329   1.000000
  158      -16.757262   1.000000
  159      -16.710499   1.000000
  160      -16.710467   1.000000
  161      -16.710402   1.000000
  162      -16.710370   1.000000
  163      -16.710061   1.000000
  164      -16.710041   1.000000
  165      -16.676541   1.000000
  166      -16.676509   1.000000
  167      -16.676308   1.000000
  168      -16.676240   1.000000
  169      -16.675018   1.000000
  170      -16.674943   1.000000
  171      -16.586217   1.000000
  172      -16.586180   1.000000
  173      -16.586112   1.000000
  174      -16.586069   1.000000
  175      -16.585722   1.000000
  176      -16.585698   1.000000
  177      -16.573551   1.000000
  178      -16.573377   1.000000
  179      -16.573353   1.000000
  180      -16.573261   1.000000
  181      -16.572882   1.000000
  182      -16.572768   1.000000
  183      -16.572688   1.000000
  184      -16.572587   1.000000
  185      -16.572267   1.000000
  186      -16.572182   1.000000
  187      -16.572075   1.000000
  188      -16.572041   1.000000
  189      -16.552547   1.000000
  190      -16.552499   1.000000
  191      -16.552399   1.000000
  192      -16.552264   1.000000
  193      -16.550774   1.000000
  194      -16.550697   1.000000
  195      -16.450351   1.000000
  196      -16.450190   1.000000
  197      -16.450142   1.000000
  198      -16.450074   1.000000
  199      -16.449684   1.000000
  200      -16.449552   1.000000
  201      -16.449493   1.000000
  202      -16.449364   1.000000
  203      -16.449040   1.000000
  204      -16.448954   1.000000
  205      -16.448878   1.000000
  206      -16.448820   1.000000
  207      -16.401128   1.000000
  208      -16.401086   1.000000
  209      -16.401064   1.000000
  210      -16.401045   1.000000
  211      -16.279323   1.000000
  212      -16.279278   1.000000
  213      -16.279256   1.000000
  214      -16.279237   1.000000
  215      -16.263922   1.000000
  216      -16.263828   1.000000
  217      -16.263799   1.000000
  218      -16.263712   1.000000
  219      -16.195419   1.000000
  220      -16.195404   1.000000
  221      -16.195374   1.000000
  222      -16.195359   1.000000
  223      -16.162152   1.000000
  224      -16.162140   1.000000
  225      -16.161747   1.000000
  226      -16.161734   1.000000
  227      -16.161664   1.000000
  228      -16.161610   1.000000
  229      -16.143232   1.000000
  230      -16.143133   1.000000
  231      -16.143106   1.000000
  232      -16.143015   1.000000
  233      -16.075254   1.000000
  234      -16.075236   1.000000
  235      -16.075210   1.000000
  236      -16.075194   1.000000
  237      -16.059510   1.000000
  238      -16.059431   1.000000
  239      -16.059409   1.000000
  240      -16.059346   1.000000
  241      -16.042301   1.000000
  242      -16.042288   1.000000
  243      -16.041895   1.000000
  244      -16.041877   1.000000
  245      -16.041808   1.000000
  246      -16.041755   1.000000
  247      -15.940491   1.000000
  248      -15.940401   1.000000
  249      -15.940386   1.000000
  250      -15.940310   1.000000
  251      -15.855398   1.000000
  252      -15.855348   1.000000
  253      -15.855092   1.000000
  254      -15.855071   1.000000
  255      -15.785942   1.000000
  256      -15.785926   1.000000
  257      -15.754347   1.000000
  258      -15.754305   1.000000
  259      -15.754255   1.000000
  260      -15.754214   1.000000
  261      -15.752736   1.000000
  262      -15.752722   1.000000
  263      -15.751615   1.000000
  264      -15.751581   1.000000
  265      -15.751227   1.000000
  266      -15.751102   1.000000
  267      -15.751089   1.000000
  268      -15.751062   1.000000
  269      -15.738042   1.000000
  270      -15.737990   1.000000
  271      -15.737731   1.000000
  272      -15.737711   1.000000
  273      -15.669129   1.000000
  274      -15.669109   1.000000
  275      -15.651017   1.000000
  276      -15.650995   1.000000
  277      -15.650969   1.000000
  278      -15.650960   1.000000
  279      -15.638175   1.000000
  280      -15.638135   1.000000
  281      -15.638084   1.000000
  282      -15.638044   1.000000
  283      -15.636569   1.000000
  284      -15.636553   1.000000
  285      -15.634676   1.000000
  286      -15.634641   1.000000
  287      -15.634289   1.000000
  288      -15.634157   1.000000
  289      -15.634146   1.000000
  290      -15.634117   1.000000
  291      -15.585085   1.000000
  292      -15.585028   1.000000
  293      -15.535297   1.000000
  294      -15.535286   1.000000
  295      -15.535252   1.000000
  296      -15.535238   1.000000
  297      -15.483529   1.000000
  298      -15.483435   1.000000
  299      -15.483416   1.000000
  300      -15.483357   1.000000
  301      -15.483044   1.000000
  302      -15.483019   1.000000
  303      -15.483016   1.000000
  304      -15.483007   1.000000
  305      -15.482741   1.000000
  306      -15.482710   1.000000
  307      -15.482679   1.000000
  308      -15.482661   1.000000
  309      -15.469951   1.000000
  310      -15.469886   1.000000
  311      -15.369210   1.000000
  312      -15.369114   1.000000
  313      -15.369083   1.000000
  314      -15.369025   1.000000
  315      -15.368717   1.000000
  316      -15.368688   1.000000
  317      -15.368682   1.000000
  318      -15.368676   1.000000
  319      -15.368412   1.000000
  320      -15.368380   1.000000
  321      -15.368348   1.000000
  322      -15.368332   1.000000
  323      -15.248341   1.000000
  324      -15.248230   1.000000
  325      -15.247945   1.000000
  326      -15.247850   1.000000
  327      -15.246923   1.000000
  328      -15.246919   1.000000
  329      -15.246848   1.000000
  330      -15.246832   1.000000
  331      -15.180451   1.000000
  332      -15.180398   1.000000
  333      -15.180376   1.000000
  334      -15.180296   1.000000
  335      -15.135947   1.000000
  336      -15.135835   1.000000
  337      -15.135555   1.000000
  338      -15.135458   1.000000
  339      -15.134528   1.000000
  340      -15.134525   1.000000
  341      -15.134440   1.000000
  342      -15.134421   1.000000
  343      -15.068559   1.000000
  344      -15.068501   1.000000
  345      -15.068454   1.000000
  346      -15.068376   1.000000
  347      -15.047185   1.000000
  348      -15.047152   1.000000
  349      -15.047065   1.000000
  350      -15.047033   1.000000
  351      -14.948865   1.000000
  352      -14.948705   1.000000
  353      -14.948274   1.000000
  354      -14.948149   1.000000
  355      -14.947990   1.000000
  356      -14.947828   1.000000
  357      -14.936425   1.000000
  358      -14.936391   1.000000
  359      -14.936307   1.000000
  360      -14.936274   1.000000
  361      -14.848931   1.000000
  362      -14.848852   1.000000
  363      -14.848763   1.000000
  364      -14.848692   1.000000
  365      -14.838952   1.000000
  366      -14.838792   1.000000
  367      -14.838359   1.000000
  368      -14.838236   1.000000
  369      -14.838073   1.000000
  370      -14.837913   1.000000
  371      -14.739852   1.000000
  372      -14.739760   1.000000
  373      -14.739685   1.000000
  374      -14.739597   1.000000
  375      -14.682508   1.000000
  376      -14.682503   1.000000
  377      -14.682472   1.000000
  378      -14.682437   1.000000
  379      -14.681617   1.000000
  380      -14.681585   1.000000
  381      -14.649210   1.000000
  382      -14.649148   1.000000
  383      -14.648613   1.000000
  384      -14.648596   1.000000
  385      -14.584607   1.000000
  386      -14.584589   1.000000
  387      -14.584582   1.000000
  388      -14.584558   1.000000
  389      -14.574953   1.000000
  390      -14.574949   1.000000
  391      -14.574914   1.000000
  392      -14.574881   1.000000
  393      -14.574003   1.000000
  394      -14.573978   1.000000
  395      -14.551884   1.000000
  396      -14.551763   1.000000
  397      -14.551722   1.000000
  398      -14.551668   1.000000
  399      -14.551465   1.000000
  400      -14.551438   1.000000
  401      -14.551430   1.000000
  402      -14.551385   1.000000
  403      -14.550846   1.000000
  404      -14.550802   1.000000
  405      -14.550797   1.000000
  406      -14.550769   1.000000
  407      -14.542825   1.000000
  408      -14.542762   1.000000
  409      -14.540251   1.000000
  410      -14.540230   1.000000
  411      -14.477725   1.000000
  412      -14.477707   1.000000
  413      -14.477699   1.000000
  414      -14.477675   1.000000
  415      -14.445394   1.000000
  416      -14.445267   1.000000
  417      -14.445217   1.000000
  418      -14.445176   1.000000
  419      -14.444906   1.000000
  420      -14.444869   1.000000
  421      -14.444855   1.000000
  422      -14.444826   1.000000
  423      -14.444295   1.000000
  424      -14.444287   1.000000
  425      -14.444256   1.000000
  426      -14.444246   1.000000
  427      -14.387980   1.000000
  428      -14.387958   1.000000
  429      -14.387800   1.000000
  430      -14.387784   1.000000
  431      -14.282847   1.000000
  432      -14.282805   1.000000
  433      -14.282651   1.000000
  434      -14.282644   1.000000
  435      -14.258791   1.000000
  436      -14.258774   1.000000
  437      -14.162015   1.000000
  438      -14.162013   1.000000
  439      -14.161953   1.000000
  440      -14.161921   1.000000
  441      -14.161371   1.000000
  442      -14.161302   1.000000
  443      -14.161222   1.000000
  444      -14.161202   1.000000
  445      -14.160980   1.000000
  446      -14.160952   1.000000
  447      -14.160886   1.000000
  448      -14.160820   1.000000
  449      -14.154685   1.000000
  450      -14.154668   1.000000
  451      -14.069543   1.000000
  452      -14.069498   1.000000
  453      -14.069397   1.000000
  454      -14.069321   1.000000
  455      -14.058828   1.000000
  456      -14.058824   1.000000
  457      -14.058751   1.000000
  458      -14.058719   1.000000
  459      -14.058164   1.000000
  460      -14.058095   1.000000
  461      -14.058018   1.000000
  462      -14.057998   1.000000
  463      -14.057781   1.000000
  464      -14.057754   1.000000
  465      -14.057687   1.000000
  466      -14.057619   1.000000
  467      -14.005304   1.000000
  468      -14.005279   1.000000
  469      -14.005257   1.000000
  470      -14.005218   1.000000
  471      -13.967884   1.000000
  472      -13.967838   1.000000
  473      -13.967746   1.000000
  474      -13.967664   1.000000
  475      -13.903935   1.000000
  476      -13.903911   1.000000
  477      -13.903895   1.000000
  478      -13.903852   1.000000
  479      -13.878123   1.000000
  480      -13.878100   1.000000
  481      -13.878003   1.000000
  482      -13.877995   1.000000
  483      -13.871777   1.000000
  484      -13.871698   1.000000
  485      -13.871455   1.000000
  486      -13.871407   1.000000
  487      -13.777989   1.000000
  488      -13.777964   1.000000
  489      -13.777880   1.000000
  490      -13.777869   1.000000
  491      -13.771086   1.000000
  492      -13.771009   1.000000
  493      -13.770761   1.000000
  494      -13.770716   1.000000
  495      -13.687054   1.000000
  496      -13.687038   1.000000
  497      -13.687029   1.000000
  498      -13.687004   1.000000
  499      -13.588527   1.000000
  500      -13.588510   1.000000
  501      -13.588499   1.000000
  502      -13.588471   1.000000
  503      -13.524442   1.000000
  504      -13.524426   1.000000
  505      -13.523356   1.000000
  506      -13.523333   1.000000
  507      -13.523294   1.000000
  508      -13.523289   1.000000
  509      -13.472079   1.000000
  510      -13.469938   1.000000
  511      -13.444277   1.000000
  512      -13.444185   1.000000
  513      -13.443822   1.000000
  514      -13.442097   1.000000
  515      -13.441995   1.000000
  516      -13.441222   1.000000
  517      -13.441210   1.000000
  518      -13.440802   1.000000
  519      -13.439109   1.000000
  520      -13.439080   1.000000
  521      -13.438781   1.000000
  522      -13.437564   1.000000
  523      -13.436017   1.000000
  524      -13.436006   1.000000
  525      -13.435969   1.000000
  526      -13.435926   1.000000
  527      -13.426911   1.000000
  528      -13.426894   1.000000
  529      -13.425811   1.000000
  530      -13.425791   1.000000
  531      -13.425748   1.000000
  532      -13.425744   1.000000
  533      -13.379998   1.000000
  534      -13.378952   1.000000
  535      -13.355180   1.000000
  536      -13.355080   1.000000
  537      -13.352573   1.000000
  538      -13.352558   1.000000
  539      -13.351794   1.000000
  540      -13.351030   1.000000
  541      -13.348938   1.000000
  542      -13.348231   1.000000
  543      -13.346956   1.000000
  544      -13.346563   1.000000
  545      -13.346165   1.000000
  546      -13.346085   1.000000
  547      -13.345591   1.000000
  548      -13.343623   1.000000
  549      -13.343597   1.000000
  550      -13.343294   1.000000
  551      -13.339683   1.000000
  552      -13.339673   1.000000
  553      -13.339598   1.000000
  554      -13.339549   1.000000
  555      -13.256478   1.000000
  556      -13.256356   1.000000
  557      -13.254923   1.000000
  558      -13.254809   1.000000
  559      -13.198281   1.000000
  560      -13.198103   1.000000
  561      -13.198005   1.000000
  562      -13.197862   1.000000
  563      -13.196118   1.000000
  564      -13.196074   1.000000
  565      -13.195122   1.000000
  566      -13.195021   1.000000
  567      -13.194942   1.000000
  568      -13.194710   1.000000
  569      -13.193991   1.000000
  570      -13.193852   1.000000
  571      -13.124773   1.000000
  572      -13.124729   1.000000
  573      -13.124643   1.000000
  574      -13.124604   1.000000
  575      -13.105580   1.000000
  576      -13.105338   1.000000
  577      -13.105212   1.000000
  578      -13.104942   1.000000
  579      -13.103494   1.000000
  580      -13.103298   1.000000
  581      -13.102757   1.000000
  582      -13.102590   1.000000
  583      -13.102581   1.000000
  584      -13.102182   1.000000
  585      -13.101566   1.000000
  586      -13.101430   1.000000
  587      -13.084871   1.000000
  588      -13.084823   1.000000
  589      -13.041313   1.000000
  590      -13.041279   1.000000
  591      -13.031255   1.000000
  592      -13.031206   1.000000
  593      -13.031124   1.000000
  594      -13.031087   1.000000
  595      -13.011132   1.000000
  596      -13.011080   1.000000
  597      -12.983731   1.000000
  598      -12.983611   1.000000
  599      -12.981604   1.000000
  600      -12.981504   1.000000
  601      -12.940370   1.000000
  602      -12.940332   1.000000
  603      -12.938329   1.000000
  604      -12.938298   1.000000
  605      -12.890059   1.000000
  606      -12.889965   1.000000
  607      -12.888631   1.000000
  608      -12.888510   1.000000
  609      -12.797840   1.000000
  610      -12.797804   1.000000
  611      -12.797703   1.000000
  612      -12.797667   1.000000
  613      -12.765176   1.000000
  614      -12.764856   1.000000
  615      -12.715559   1.000000
  616      -12.715472   1.000000
  617      -12.715317   1.000000
  618      -12.715214   1.000000
  619      -12.713644   1.000000
  620      -12.713360   1.000000
  621      -12.712180   1.000000
  622      -12.712085   1.000000
  623      -12.711986   1.000000
  624      -12.711829   1.000000
  625      -12.711168   1.000000
  626      -12.710910   1.000000
  627      -12.675679   1.000000
  628      -12.675357   1.000000
  629      -12.620928   1.000000
  630      -12.620776   1.000000
  631      -12.620596   1.000000
  632      -12.620579   1.000000
  633      -12.619163   1.000000
  634      -12.618898   1.000000
  635      -12.618399   1.000000
  636      -12.618336   1.000000
  637      -12.618211   1.000000
  638      -12.618038   1.000000
  639      -12.617549   1.000000
  640      -12.617256   1.000000
  641      -12.593702   1.000000
  642      -12.593602   1.000000
  643      -12.593560   1.000000
  644      -12.593461   1.000000
  645      -12.389751   1.000000
  646      -12.389719   1.000000
  647      -12.387167   1.000000
  648      -12.387128   1.000000
  649      -12.334860   1.000000
  650      -12.334816   1.000000
  651      -12.334800   1.000000
  652      -12.334768   1.000000
  653      -12.297307   1.000000
  654      -12.297266   1.000000
  655      -12.296070   1.000000
  656      -12.296034   1.000000
  657      -12.037471   1.000000
  658      -12.037436   1.000000
  659      -12.036861   1.000000
  660      -12.036820   1.000000
  661      -12.031243   1.000000
  662      -12.031181   1.000000
  663      -12.030603   1.000000
  664      -12.030446   1.000000
  665      -12.016473   1.000000
  666      -12.016408   1.000000
  667      -12.016322   1.000000
  668      -12.016273   1.000000
  669      -11.992636   1.000000
  670      -11.992614   1.000000
  671      -11.973733   1.000000
  672      -11.973702   1.000000
  673      -11.958202   1.000000
  674      -11.958194   1.000000
  675      -11.955658   1.000000
  676      -11.955607   1.000000
  677      -11.955527   1.000000
  678      -11.955478   1.000000
  679      -11.898451   1.000000
  680      -11.898439   1.000000
  681      -11.897877   1.000000
  682      -11.897819   1.000000
  683      -11.746697   1.000000
  684      -11.746662   1.000000
  685      -11.746582   1.000000
  686      -11.746545   1.000000
  687      -11.665961   1.000000
  688      -11.665912   1.000000
  689      -11.664733   1.000000
  690      -11.664389   1.000000
  691      -11.664365   1.000000
  692      -11.663633   1.000000
  693      -11.663605   1.000000
  694      -11.662586   1.000000
  695      -11.645030   1.000000
  696      -11.644965   1.000000
  697      -11.637355   1.000000
  698      -11.634391   1.000000
  699      -11.634288   1.000000
  700      -11.633288   1.000000
  701      -11.590009   1.000000
  702      -11.589792   1.000000
  703      -11.589776   1.000000
  704      -11.587271   1.000000
  705      -11.587230   1.000000
  706      -11.586229   1.000000
  707      -11.562707   1.000000
  708      -11.559983   1.000000
  709      -11.559482   1.000000
  710      -11.555533   1.000000
  711      -11.555527   1.000000
  712      -11.555396   1.000000
  713      -11.555295   1.000000
  714      -11.555008   1.000000
  715      -11.550221   1.000000
  716      -11.550116   1.000000
  717      -11.549758   1.000000
  718      -11.549730   1.000000
  719      -11.549694   1.000000
  720      -11.549666   1.000000
  721      -11.549387   1.000000
  722      -11.549380   1.000000
  723      -11.549246   1.000000
  724      -11.549214   1.000000
  725      -11.548341   1.000000
  726      -11.548286   1.000000
  727      -11.476784   1.000000
  728      -11.476746   1.000000
  729      -11.476439   1.000000
  730      -11.476432   1.000000
  731      -11.476315   1.000000
  732      -11.476268   1.000000
  733      -11.473186   1.000000
  734      -11.473167   1.000000
  735      -11.472892   1.000000
  736      -11.472834   1.000000
  737      -11.472240   1.000000
  738      -11.472229   1.000000
  739      -11.411406   1.000000
  740      -11.411351   1.000000
  741      -11.410048   1.000000
  742      -11.409946   1.000000
  743      -11.340211   1.000000
  744      -11.340171   1.000000
  745      -11.335129   1.000000
  746      -11.335094   1.000000
  747      -11.327941   1.000000
  748      -11.327887   1.000000
  749      -11.327822   1.000000
  750      -11.327775   1.000000
  751      -11.229809   1.000000
  752      -11.229775   1.000000
  753      -11.229567   1.000000
  754      -11.229554   1.000000
  755      -11.228674   1.000000
  756      -11.228627   1.000000
  757      -11.228497   1.000000
  758      -11.228399   1.000000
  759      -11.227919   1.000000
  760      -11.227789   1.000000
  761      -11.227690   1.000000
  762      -11.227529   1.000000
  763      -11.170862   1.000000
  764      -11.170809   1.000000
  765      -11.161366   1.000000
  766      -11.161321   1.000000
  767      -11.160980   1.000000
  768      -11.160859   1.000000
  769      -11.160736   1.000000
  770      -11.160587   1.000000
  771      -11.155990   1.000000
  772      -11.155965   1.000000
  773      -11.155836   1.000000
  774      -11.155798   1.000000
  775      -11.155351   1.000000
  776      -11.155187   1.000000
  777      -11.143482   1.000000
  778      -11.143422   1.000000
  779      -11.138377   1.000000
  780      -11.138310   1.000000
  781      -11.126461   1.000000
  782      -11.126419   1.000000
  783      -11.039347   1.000000
  784      -11.039149   1.000000
  785      -11.032339   1.000000
  786      -11.032171   1.000000
  787      -10.971888   1.000000
  788      -10.971791   1.000000
  789      -10.967659   1.000000
  790      -10.967643   1.000000
  791      -10.967205   1.000000
  792      -10.967154   1.000000
  793      -10.956929   1.000000
  794      -10.956782   1.000000
  795      -10.951797   1.000000
  796      -10.951577   1.000000
  797      -10.945792   1.000000
  798      -10.945768   1.000000
  799      -10.945760   1.000000
  800      -10.945741   1.000000
  801      -10.942089   1.000000
  802      -10.942042   1.000000
  803      -10.941816   1.000000
  804      -10.941789   1.000000
  805      -10.940752   1.000000
  806      -10.940686   1.000000
  807      -10.892365   1.000000
  808      -10.892360   1.000000
  809      -10.892340   1.000000
  810      -10.892331   1.000000
  811      -10.868530   1.000000
  812      -10.868495   1.000000
  813      -10.868492   1.000000
  814      -10.868470   1.000000
  815      -10.815461   1.000000
  816      -10.815452   1.000000
  817      -10.815435   1.000000
  818      -10.815426   1.000000
  819      -10.791418   1.000000
  820      -10.791400   1.000000
  821      -10.791395   1.000000
  822      -10.791376   1.000000
  823      -10.754657   1.000000
  824      -10.754606   1.000000
  825      -10.754298   1.000000
  826      -10.754196   1.000000
  827      -10.753934   1.000000
  828      -10.753888   1.000000
  829      -10.753202   1.000000
  830      -10.753156   1.000000
  831      -10.751549   1.000000
  832      -10.751511   1.000000
  833      -10.751474   1.000000
  834      -10.751415   1.000000
  835      -10.711879   1.000000
  836      -10.711869   1.000000
  837      -10.711824   1.000000
  838      -10.711811   1.000000
  839      -10.681921   1.000000
  840      -10.681850   1.000000
  841      -10.681631   1.000000
  842      -10.681563   1.000000
  843      -10.647050   1.000000
  844      -10.647029   1.000000
  845      -10.647005   1.000000
  846      -10.646985   1.000000
  847      -10.564212   1.000000
  848      -10.564170   1.000000
  849      -10.564156   1.000000
  850      -10.564147   1.000000
  851      -10.498077   1.000000
  852      -10.498055   1.000000
  853      -10.497885   1.000000
  854      -10.497870   1.000000
  855      -10.432053   1.000000
  856      -10.431977   1.000000
  857      -10.431104   1.000000
  858      -10.430979   1.000000
  859      -10.382707   1.000000
  860      -10.382688   1.000000
  861      -10.382653   1.000000
  862      -10.382626   1.000000
  863      -10.203273   1.000000
  864      -10.203202   1.000000
  865      -10.202870   1.000000
  866      -10.202821   1.000000
  867      -10.156030   1.000000
  868      -10.155809   1.000000
  869      -10.135264   1.000000
  870      -10.135238   1.000000
  871      -10.135213   1.000000
  872      -10.135198   1.000000
  873      -10.133309   1.000000
  874      -10.133085   1.000000
  875      -10.132555   1.000000
  876      -10.132511   1.000000
  877      -10.132474   1.000000
  878      -10.132435   1.000000
  879      -10.132203   1.000000
  880      -10.132184   1.000000
  881      -10.132028   1.000000
  882      -10.131985   1.000000
  883      -10.131965   1.000000
  884      -10.131791   1.000000
  885      -10.083036   1.000000
  886      -10.082815   1.000000
  887      -10.065188   1.000000
  888      -10.065126   1.000000
  889      -10.064935   1.000000
  890      -10.064867   1.000000
  891      -10.061037   1.000000
  892      -10.061017   1.000000
  893      -10.060981   1.000000
  894      -10.060967   1.000000
  895      -10.059191   1.000000
  896      -10.058978   1.000000
  897      -10.057925   1.000000
  898      -10.057861   1.000000
  899      -10.057617   1.000000
  900      -10.057579   1.000000
  901      -10.057571   1.000000