       N       E                     dE             d eps       ncg     rms          rms(c)
DAV:   1     0.322636208788E+05    0.32264E+05   -0.22496E+06  6792   0.115E+03
DAV:   2    -0.914227948268E+04   -0.41406E+05   -0.39888E+05  8964   0.309E+02
DAV:   3    -0.131875815169E+05   -0.40453E+04   -0.40039E+04  7812   0.995E+01
DAV:   4    -0.133094149448E+05   -0.12183E+03   -0.12138E+03  8472   0.190E+01
DAV:   5    -0.133143079793E+05   -0.48930E+01   -0.48900E+01  9204   0.321E+00    0.166E+02
RMM:   6    -0.126963574221E+05    0.61795E+03   -0.60481E+02  6768   0.108E+01    0.983E+01
RMM:   7    -0.124765888840E+05    0.21977E+03   -0.96067E+02  6768   0.135E+01    0.240E+01
RMM:   8    -0.124718235163E+05    0.47654E+01   -0.21150E+01  6840   0.217E+00    0.246E+00
RMM:   9    -0.124712285116E+05    0.59500E+00   -0.17034E+00  7098   0.524E-01    0.166E+00
RMM:  10    -0.124708993480E+05    0.32916E+00   -0.95268E-01  6768   0.331E-01    0.918E-01
RMM:  11    -0.124710146935E+05   -0.11535E+00   -0.48289E-01  6768   0.207E-01    0.538E-01
RMM:  12    -0.124712554298E+05   -0.24074E+00   -0.30713E-01  6768   0.162E-01    0.260E-01
RMM:  13    -0.124713142375E+05   -0.58808E-01   -0.20200E-02  6868   0.585E-02    0.121E-01
RMM:  14    -0.124713204198E+05   -0.61823E-02   -0.28305E-03  6820   0.214E-02    0.195E-02
RMM:  15    -0.124713210326E+05   -0.61286E-03   -0.24769E-04  7055   0.719E-03    0.150E-02
RMM:  16    -0.124713211458E+05   -0.11319E-03   -0.52446E-05  6887   0.271E-03    0.486E-03
RMM:  17    -0.124713211765E+05   -0.30725E-04   -0.87103E-06  7016   0.110E-03    0.146E-03
RMM:  18    -0.124713211846E+05   -0.80814E-05   -0.16768E-06  5147   0.417E-04    0.911E-04
RMM:  19    -0.124713211859E+05   -0.13002E-05   -0.27485E-07  4473   0.229E-04    0.397E-04
RMM:  20    -0.124713211864E+05   -0.45594E-06   -0.56138E-08  4062   0.972E-05    0.125E-04
RMM:  21    -0.124713211863E+05    0.10006E-06   -0.15060E-08  2837   0.546E-05    0.582E-05
RMM:  22    -0.124713211862E+05    0.10134E-06   -0.10284E-08  2061   0.430E-05    0.281E-05
RMM:  23    -0.124713211862E+05    0.96625E-08   -0.35921E-09  1717   0.358E-05
   1 F= -.12591551E+05 E0= -.12591551E+05  d E =-.125916E+05
       N       E                     dE             d eps       ncg     rms          rms(c)
DAV:   1    -0.124721152035E+05   -0.79402E+00   -0.51721E+01  7116   0.410E+00    0.330E+00
RMM:   2    -0.124717171486E+05    0.39805E+00   -0.11366E+00  6768   0.559E-01    0.195E+00
RMM:   3    -0.124714585199E+05    0.25863E+00   -0.62276E-01  6768   0.336E-01    0.486E-01
RMM:   4    -0.124714581113E+05    0.40858E-03   -0.21606E-02  6954   0.671E-02    0.288E-01
RMM:   5    -0.124714641855E+05   -0.60742E-02   -0.56914E-03  6839   0.336E-02    0.945E-02
RMM:   6    -0.124714683433E+05   -0.41578E-02   -0.17006E-03  6791   0.172E-02    0.543E-02
RMM:   7    -0.124714793844E+05   -0.11041E-01   -0.12453E-03  6773   0.126E-02    0.401E-02
RMM:   8    -0.124714920043E+05   -0.12620E-01   -0.27163E-03  6768   0.151E-02    0.176E-02
RMM:   9    -0.124714953432E+05   -0.33389E-02   -0.68494E-04  6768   0.711E-03    0.109E-02
RMM:  10    -0.124714958141E+05   -0.47098E-03   -0.13186E-04  6779   0.325E-03    0.369E-03
RMM:  11    -0.124714958244E+05   -0.10265E-04   -0.76318E-06  6988   0.981E-04    0.180E-03
RMM:  12    -0.124714958239E+05    0.46694E-06   -0.56466E-07  4817   0.301E-04    0.141E-03
RMM:  13    -0.124714958247E+05   -0.72102E-06   -0.65931E-07  5343   0.321E-04    0.511E-04
RMM:  14    -0.124714958246E+05    0.44820E-07   -0.47008E-08  4037   0.106E-04
   2 F= -.12591672E+05 E0= -.12591672E+05  d E =-.121290E+00
       N       E                     dE             d eps       ncg     rms          rms(c)
DAV:   1    -0.124716499257E+05   -0.15410E+00   -0.64725E+00  6900   0.145E+00    0.117E+00
RMM:   2    -0.124715998537E+05    0.50072E-01   -0.13063E-01  6773   0.195E-01    0.688E-01
RMM:   3    -0.124715686480E+05    0.31206E-01   -0.80543E-02  6769   0.121E-01    0.166E-01
RMM:   4    -0.124715684552E+05    0.19280E-03   -0.23960E-03  7010   0.224E-02    0.103E-01
RMM:   5    -0.124715690483E+05   -0.59314E-03   -0.77961E-04  6845   0.123E-02    0.369E-02
RMM:   6    -0.124715693396E+05   -0.29133E-03   -0.20903E-04  6795   0.600E-03    0.195E-02
RMM:   7    -0.124715703241E+05   -0.98447E-03   -0.10513E-04  6791   0.379E-03    0.147E-02
RMM:   8    -0.124715711565E+05   -0.83242E-03   -0.17691E-04  6768   0.415E-03    0.683E-03
RMM:   9    -0.124715714146E+05   -0.25812E-03   -0.49604E-05  6768   0.214E-03    0.436E-03
RMM:  10    -0.124715714643E+05   -0.49655E-04   -0.13827E-05  6774   0.113E-03    0.165E-03
RMM:  11    -0.124715714661E+05   -0.18113E-05   -0.67391E-07  4884   0.327E-04    0.630E-04
RMM:  12    -0.124715714665E+05   -0.35029E-06   -0.66758E-08  4044   0.129E-04    0.424E-04
RMM:  13    -0.124715714667E+05   -0.26519E-06   -0.63930E-08  4002   0.107E-04    0.193E-04
RMM:  14    -0.124715714669E+05   -0.12165E-06   -0.12202E-08  2509   0.538E-05    0.736E-05
RMM:  15    -0.124715714670E+05   -0.14808E-06   -0.10550E-08  2524   0.502E-05    0.258E-05
RMM:  16    -0.124715714670E+05    0.27474E-07   -0.65906E-09  1637   0.410E-05
   3 F= -.12591769E+05 E0= -.12591769E+05  d E =-.218060E+00
       N       E                     dE             d eps       ncg     rms          rms(c)
DAV:   1    -0.124715730466E+05   -0.15796E-02   -0.14355E+00  6912   0.684E-01    0.551E-01
RMM:   2    -0.124715619875E+05    0.11059E-01   -0.28837E-02  6776   0.920E-02    0.324E-01
RMM:   3    -0.124715550049E+05    0.69827E-02   -0.17804E-02  6773   0.571E-02    0.783E-02
RMM:   4    -0.124715549669E+05    0.38006E-04   -0.53785E-04  7010   0.106E-02    0.484E-02
RMM:   5    -0.124715551496E+05   -0.18272E-03   -0.17417E-04  6836   0.580E-03    0.174E-02
RMM:   6    -0.124715552375E+05   -0.87945E-04   -0.46920E-05  6791   0.284E-03    0.918E-03
RMM:   7    -0.124715555027E+05   -0.26519E-03   -0.25297E-05  6795   0.182E-03    0.693E-03
RMM:   8    -0.124715557185E+05   -0.21578E-03   -0.41814E-05  6768   0.200E-03    0.325E-03
RMM:   9    -0.124715557817E+05   -0.63217E-04   -0.12060E-05  6768   0.104E-03    0.206E-03
RMM:  10    -0.124715557923E+05   -0.10551E-04   -0.31205E-06  5320   0.536E-04    0.761E-04
RMM:  11    -0.124715557929E+05   -0.64960E-06   -0.18495E-07  4545   0.181E-04    0.297E-04
RMM:  12    -0.124715557931E+05   -0.16543E-06   -0.25826E-08  3981   0.792E-05    0.227E-04
RMM:  13    -0.124715557932E+05   -0.14377E-06   -0.26660E-08  3724   0.712E-05    0.899E-05
RMM:  14    -0.124715557932E+05   -0.77998E-08   -0.13086E-08  1972   0.439E-05
   4 F= -.12591762E+05 E0= -.12591762E+05  d E =-.211080E+00
       N       E                     dE             d eps       ncg     rms          rms(c)
DAV:   1    -0.124721812909E+05   -0.62550E+00   -0.33363E+01  6924   0.326E+00    0.270E+00
RMM:   2    -0.124718925991E+05    0.28869E+00   -0.59854E-01  6775   0.419E-01    0.159E+00
RMM:   3    -0.124717094618E+05    0.18314E+00   -0.42598E-01  6774   0.277E-01    0.385E-01
RMM:   4    -0.124717108750E+05   -0.14132E-02   -0.11817E-02  7040   0.503E-02    0.226E-01
RMM:   5    -0.124717193182E+05   -0.84432E-02   -0.32742E-03  6851   0.264E-02    0.770E-02
RMM:   6    -0.124717212663E+05   -0.19481E-02   -0.85801E-04  6798   0.124E-02    0.422E-02
RMM:   7    -0.124717324989E+05   -0.11233E-01   -0.12925E-03  6768   0.117E-02    0.344E-02
RMM:   8    -0.124717393092E+05   -0.68103E-02   -0.13080E-03  6768   0.107E-02    0.132E-02
RMM:   9    -0.124717419296E+05   -0.26205E-02   -0.56068E-04  6768   0.626E-03    0.102E-02
RMM:  10    -0.124717421451E+05   -0.21542E-03   -0.59670E-05  6836   0.227E-03    0.219E-03
RMM:  11    -0.124717421605E+05   -0.15475E-04   -0.66223E-06  6902   0.883E-04    0.186E-03
RMM:  12    -0.124717421596E+05    0.96485E-06   -0.41637E-07  4782   0.273E-04    0.117E-03
RMM:  13    -0.124717421592E+05    0.36194E-06   -0.32580E-07  4585   0.228E-04    0.386E-04
RMM:  14    -0.124717421590E+05    0.18685E-06   -0.48940E-08  4031   0.106E-04    0.131E-04
RMM:  15    -0.124717421588E+05    0.20361E-06   -0.38744E-08  3993   0.833E-05    0.103E-04
RMM:  16    -0.124717421589E+05   -0.12491E-06   -0.12263E-08  2369   0.488E-05    0.674E-05
RMM:  17    -0.124717421590E+05   -0.10594E-07   -0.64193E-09  1709   0.370E-05
   5 F= -.12591866E+05 E0= -.12591866E+05  d E =-.104336E+00
       N       E                     dE             d eps       ncg     rms          rms(c)
DAV:   1    -0.124717864495E+05   -0.44291E-01   -0.27871E+00  6924   0.941E-01    0.782E-01
RMM:   2    -0.124717629027E+05    0.23547E-01   -0.49213E-02  6776   0.121E-01    0.458E-01
RMM:   3    -0.124717485857E+05    0.14317E-01   -0.36090E-02  6772   0.808E-02    0.110E-01
RMM:   4    -0.124717485925E+05   -0.67739E-05   -0.87718E-04  7025   0.139E-02    0.663E-02
RMM:   5    -0.124717489664E+05   -0.37388E-03   -0.26952E-04  6819   0.761E-03    0.238E-02
RMM:   6    -0.124717491142E+05   -0.14789E-03   -0.71557E-05  6784   0.359E-03    0.123E-02
RMM:   7    -0.124717496945E+05   -0.58029E-03   -0.59096E-05  6772   0.269E-03    0.101E-02
RMM:   8    -0.124717500250E+05   -0.33044E-03   -0.66796E-05  6768   0.260E-03    0.400E-03
RMM:   9    -0.124717501552E+05   -0.13023E-03   -0.26086E-05  6768   0.148E-03    0.311E-03
RMM:  10    -0.124717501692E+05   -0.14037E-04   -0.39161E-06  5718   0.621E-04    0.667E-04
RMM:  11    -0.124717501703E+05   -0.10794E-05   -0.43442E-07  4723   0.251E-04    0.476E-04
RMM:  12    -0.124717501707E+05   -0.36601E-06   -0.41435E-08  4008   0.104E-04    0.342E-04
RMM:  13    -0.124717501709E+05   -0.22625E-06   -0.30834E-08  3937   0.756E-05    0.131E-04
RMM:  14    -0.124717501710E+05   -0.84576E-07   -0.19098E-08  2566   0.541E-05
   6 F= -.12591898E+05 E0= -.12591898E+05  d E =-.136474E+00
       N       E                     dE             d eps       ncg     rms          rms(c)
DAV:   1    -0.124717445881E+05    0.55828E-02   -0.16025E+00  6900   0.714E-01    0.593E-01
RMM:   2    -0.124717310735E+05    0.13515E-01   -0.28293E-02  6776   0.920E-02    0.347E-01
RMM:   3    -0.124717228227E+05    0.82508E-02   -0.20698E-02  6768   0.612E-02    0.834E-02
RMM:   4    -0.124717228280E+05   -0.52680E-05   -0.50563E-04  7025   0.106E-02    0.503E-02
RMM:   5    -0.124717230644E+05   -0.23645E-03   -0.15399E-04  6804   0.575E-03    0.180E-02
RMM:   6    -0.124717231592E+05   -0.94755E-04   -0.41227E-05  6785   0.272E-03    0.928E-03
RMM:   7    -0.124717235147E+05   -0.35556E-03   -0.35091E-05  6773   0.206E-03    0.763E-03
RMM:   8    -0.124717237155E+05   -0.20071E-03   -0.39426E-05  6768   0.199E-03    0.303E-03
RMM:   9    -0.124717237920E+05   -0.76546E-04   -0.15254E-05  6768   0.113E-03    0.234E-03
RMM:  10    -0.124717237998E+05   -0.78368E-05   -0.23222E-06  5071   0.477E-04    0.505E-04
RMM:  11    -0.124717238005E+05   -0.62934E-06   -0.25583E-07  4668   0.198E-04    0.360E-04
RMM:  12    -0.124717238007E+05   -0.26677E-06   -0.28685E-08  3980   0.842E-05    0.255E-04
RMM:  13    -0.124717238009E+05   -0.19482E-06   -0.26235E-08  3640   0.709E-05    0.806E-05
RMM:  14    -0.124717238009E+05   -0.18103E-07   -0.16693E-08  2218   0.487E-05
   7 F= -.12591889E+05 E0= -.12591889E+05  d E =-.127298E+00
