ITEM: TIMESTEP
266
ITEM: NUMBER OF ATOMS
19496
ITEM: BOX BOUNDS pp pp pp
0.0000000000000000e+00 1.2124284700000000e+02
0.0000000000000000e+00 2.0999877200000000e+02
0.0000000000000000e+00 1.5000000000000000e+01
ITEM: ATOMS id type x y z c_csym c_2[1] c_2[2] c_2[3] c_2[4] c_2[5] c_2[6] c_3 
194 1 0.866495 8.58062 2.91413 6.012 -176925 -143939 -3197.7 -33032.3 17436.7 -2403.46 -7.41562 
195 1 0.136866 7.36522 2.91004 6.01676 -151760 -165678 3260.09 -27211.6 26593.7 -2364.02 -7.41617 
196 1 0.823888 6.12492 2.90589 6.01292 -173725 -146596 -1193.75 -21521.1 19444.8 -3120.63 -7.41554 
197 1 0.0930855 4.91015 2.90165 6.0197 -153771 -164624 969.579 -14878.3 22420.9 -1642.12 -7.41566 
198 1 0.779031 3.66932 2.89813 6.01692 -168415 -150744 -592.928 -9365.09 15689.7 -3826.57 -7.41539 
199 1 0.0471923 2.4551 2.895 6.02407 -156167 -162398 -499.968 -4245.76 12801.1 -678.859 -7.41533 
200 1 0.7324 1.21392 2.89332 6.02475 -162215 -156306 -839.897 -1632.62 6115.37 -4010.94 -7.41525 
201 1 2.26927e-06 -2.06569e-06 2.89245 6.02925 -159248 -159296 -965.115 -16.8336 0.086504 -0.315687 -7.41522 
366 1 2.28398 8.55396 2.91482 6.01168 -168925 -148178 3781.14 -27708.5 25854 -5033.04 -7.4164 
367 1 2.97088 7.31349 2.91171 6.01367 -190655 -129249 -711.05 -25368.8 16799.6 -10843.2 -7.41578 
368 1 2.24135 6.09795 2.90699 6.0131 -168193 -150513 1395.56 -15404.6 24267.3 -7432.69 -7.41588 
369 1 2.92731 4.85705 2.90416 6.01456 -182869 -136364 334.922 -12480.3 16452.7 -13304.9 -7.41565 
370 1 2.19649 3.6422 2.89959 6.01629 -165320 -153758 -153.161 -2723.43 17301.3 -9194.66 -7.41549 
371 1 2.88175 2.401 2.89814 6.02001 -171712 -146879 106.717 -1916.69 10498.7 -14727.8 -7.41547 
372 1 2.14987 1.18674 2.895 6.02065 -161159 -157475 -740.368 5176.64 5753.1 -10309.5 -7.4153 
537 1 5.11659 8.50358 2.91804 6.01133 -203951 -114259 879.006 -25425.1 12231.3 -15106.8 -7.41618 
538 1 4.38828 7.28728 2.91376 6.00686 -182971 -136032 471.512 -12568.6 22120.3 -8874.93 -7.41602 
539 1 5.07431 6.04634 2.91183 6.01282 -196197 -121674 2174.33 -12001 14513.8 -18811.8 -7.4161 
540 1 4.34471 4.83073 2.90701 6.01019 -177819 -142107 -715.764 2019.47 18124.3 -13013.9 -7.41565 
541 1 5.0301 3.58956 2.90593 6.01726 -183675 -134358 1991.78 1004 12350.7 -21629.6 -7.4159 
542 1 4.29918 2.37467 2.90164 6.01421 -169241 -150462 -828.663 13448.9 9382.61 -16273.7 -7.41546 
543 1 4.98438 1.1335 2.9023 6.01668 -167656 -151114 747.831 8573.25 5576.91 -22277.9 -7.41566 
708 1 6.53394 8.4783 2.92037 6.00463 -193854 -124982 -1916.72 -8724.65 17253.6 -6933.24 -7.41602 
709 1 7.22018 7.23743 2.91926 6.00843 -204759 -111048 4804.73 -10423.4 11038.6 -20218.8 -7.41664 
710 1 6.49167 6.02112 2.915 6.00664 -188818 -131555 -2702.86 7180.48 15466 -12142.8 -7.41572 
711 1 7.17733 4.78006 2.91429 6.01297 -193623 -122775 4589.51 4582.8 11861.7 -23612.4 -7.41646 
712 1 6.44749 3.56446 2.91 6.01107 -179248 -141421 -2149.39 21882.8 9876.56 -16839.1 -7.41558 
713 1 7.13291 2.32339 2.91045 6.01454 -177608 -140010 2897.28 15938.6 8729.44 -25323.5 -7.41616 
714 1 6.40184 1.10849 2.90698 6.01343 -166065 -153794 -531.049 30269 997.963 -20347.6 -7.41564 
879 1 9.36526 8.43003 2.92566 6.00632 -206388 -106059 8158.09 -9823.55 7705.1 -19264.1 -7.41719 
880 1 8.63751 7.21323 2.92209 6.00702 -194651 -124836 -5904.24 10491.3 10828 -8545.96 -7.41569 
881 1 9.32361 5.97238 2.92153 6.0099 -197889 -115628 7781.47 6492.01 10274.4 -21949.1 -7.41704 
882 1 8.59469 4.75618 2.91786 6.01054 -186673 -134015 -4833.39 27635.7 7692.04 -13345.8 -7.41561 
883 1 9.28049 3.51531 2.91804 6.01358 -184865 -130555 5749.55 20917.4 9986.65 -23850.4 -7.41672 
884 1 8.55033 2.29978 2.91477 6.01419 -174096 -146282 -2400.9 40195.3 1729.02 -17550 -7.41572 
885 1 9.23623 1.05909 2.91614 6.00774 -167786 -149820 2380.73 29051.7 6516.62 -23745.1 -7.41631 
9774 2 0.550989 8.60577 6.48571 6.01301 -144479 -171881 4589.02 32864 26380.5 1533.1 -7.41646 
9775 2 0.593596 6.15097 6.49406 6.01726 -147554 -170581 1992.28 21827.1 24907.5 119.617 -7.4159 
9776 2 0.63845 3.69617 6.50186 6.01995 -151402 -167219 106.941 9799.41 18004.9 -1728.69 -7.41547 
9777 2 0.685088 1.24124 6.50668 6.02474 -156315 -162203 -840.273 1775.45 6530.5 -3291.61 -7.41525 
9778 2 -9.94707e-08 2.57126e-06 6.50755 6.02926 -159169 -159231 -964.351 -29.4371 0.448357 -0.159305 -7.41521 
9942 2 1.96861 8.6325 6.485 6.00672 -152170 -168239 -2703 28412.4 18249.3 -7321.96 -7.41572 
9943 2 2.69913 7.41765 6.48817 6.01289 -129961 -188040 2174.64 26254.6 23548.3 -3162.57 -7.4161 
9944 2 2.01118 6.17799 6.49299 6.01016 -152764 -167203 -715.684 16478.5 20332.2 -9187.6 -7.41565 
9945 2 2.74267 4.96364 6.49584 6.01454 -137045 -182054 335.035 13906 19748.6 -7596.01 -7.41565 
9946 2 2.05599 3.72332 6.50041 6.01622 -154201 -164752 -152.974 3634.53 16614 -10385 -7.41549 
9947 2 2.78821 2.50932 6.50187 6.0169 -146983 -172171 -593.436 2877.13 11157.4 -11673.9 -7.41539 
9948 2 2.10259 1.26842 6.50499 6.02405 -157112 -161467 -500.335 -4880.24 6987.59 -10745.8 -7.41533 
9949 2 2.83498 0.0544764 6.50418 6.02048 -159023 -159652 -534.065 -1824.88 -168.264 -14257.5 -7.41534 
10113 2 4.80601 8.68288 6.48196 6.01132 -114714 -203394 880.349 26094.2 19199.2 -3038.96 -7.41618 
10114 2 4.11683 7.44399 6.48623 6.00693 -136969 -182068 471.109 14110.3 18745.9 -14718.3 -7.41602 
10115 2 4.84823 6.2296 6.48829 6.01377 -122656 -197334 -710.665 13921.9 17791.5 -9126.94 -7.41578 
10116 2 4.16031 4.99004 6.49301 6.01309 -141475 -177128 1394.67 -103.17 18571.5 -17298.9 -7.41588 
10117 2 4.89239 3.77596 6.49411 6.01299 -134689 -185601 -1194.32 923.997 12425.2 -15278.8 -7.41554 
10118 2 4.20577 2.53568 6.49835 6.01969 -148990 -169487 968.701 -12170.5 12632.7 -18595.1 -7.41567 
10119 2 4.9381 1.32167 6.4977 6.01314 -150361 -169361 -594.329 -7851.57 3760.9 -20054.7 -7.41551 
10120 2 4.25247 0.0808066 6.50041 6.01671 -158837 -160144 -73.4691 -17394.4 2137.71 -18240.2 -7.41548 
10284 2 6.22381 8.70837 6.48005 6.00636 -123945 -192771 2708.45 10049.1 14735.6 -16844 -7.41648 
10285 2 6.95501 7.49384 6.48136 6.01581 -111972 -207733 -3133.05 11991.2 13624.9 -6941.83 -7.41581 
10286 2 6.26596 6.25496 6.48517 6.01168 -129355 -187584 3781.86 -4803.28 17285.6 -19874 -7.4164 
10287 2 6.99779 5.04071 6.48587 6.01202 -123696 -197158 -3197.56 -2185.17 10799.6 -13898.5 -7.41562 
10288 2 6.31004 3.80113 6.48996 6.01676 -138601 -178717 3259.72 -19615.5 15343.5 -21848.8 -7.41618 
10289 2 7.04218 2.58697 6.48951 6.00898 -139764 -180805 -1903.24 -14285 5018.49 -20140.1 -7.41563 
10290 2 6.35564 1.34669 6.49298 6.01504 -151522 -167005 1551.23 -29409.2 8544.01 -22096.9 -7.41588 
10291 2 7.08755 0.13231 6.49097 6.00938 -158704 -160620 395.715 -19615.7 -2343.44 -24232.4 -7.41584 
10455 2 9.06268 8.75661 6.47632 6.01765 -107250 -211062 -6535.6 10258.5 9243.66 -3093.85 -7.41574 
10456 2 8.37281 7.51822 6.47871 6.01135 -121441 -192841 6864.1 -8608.64 13799.7 -19521.5 -7.41696 
10457 2 9.10423 6.3037 6.47892 6.0129 -117274 -202835 -6379.9 -4608.61 7792.36 -9397.71 -7.4156 
10458 2 8.4155 5.06471 6.48205 6.01267 -130232 -184896 6187.47 -25056.3 15013.4 -21203.8 -7.41676 
10459 2 9.1473 3.8503 6.48169 6.00758 -131317 -188945 -4588.29 -18879.7 4241.92 -15798.1 -7.41565 
10460 2 8.45979 2.61063 6.48495 6.01103 -143008 -173507 3955.79 -38390.5 12148.3 -21685.5 -7.41641 
10461 2 9.19155 1.3961 6.48367 6.00544 -149087 -170415 -1420.57 -28269.3 -1079.46 -20956.6 -7.41591 
10462 2 8.50505 0.155827 6.48624 6.01269 -158648 -160096 804.625 -44213.4 5769.09 -20477.5 -7.41601 
1050 1 10.7826 8.40661 2.92796 6.0096 -193779 -122457 -9828.7 11047.5 6130.85 -4845.87 -7.41559 
1051 1 11.4693 7.16605 2.92721 6.00962 -196546 -114021 11475.1 5725 9062.31 -19255.3 -7.41758 
1052 1 10.741 5.94947 2.92409 6.01236 -188302 -130424 -8452.63 29316.5 4263.08 -8464.6 -7.41555 
1053 1 11.4273 4.70886 2.92382 6.0124 -187133 -125487 9163.69 22147.9 10471.6 -20199.1 -7.41727 
1054 1 10.6979 3.49285 2.92119 6.0163 -179002 -140638 -5461.5 45009.5 558.364 -12172.6 -7.4157 
1055 1 11.3841 2.25234 2.92189 6.00825 -173967 -140974 5234.82 34171.1 9218.01 -20254.9 -7.41681 
1056 1 10.6537 1.03689 2.91991 6.0132 -165900 -152670 -1345.59 53756.4 -4760.46 -15413.6 -7.41604 
1221 1 13.6146 8.36052 2.93179 6.01123 -192072 -116547 15513.3 3020.21 9264.43 -18127.6 -7.41804 
1222 1 12.8867 7.14375 2.92872 6.01487 -184575 -130566 -12574.8 27643.7 1254.21 -4876.04 -7.41546 
1223 1 13.5737 5.90347 2.92772 6.01279 -185039 -125342 12953.5 20376.5 11351.1 -17207.6 -7.41776 
1224 1 12.8447 4.68717 2.92554 6.01783 -178695 -138458 -9263.62 44963 -1287.57 -7078.69 -7.41561 
1225 1 13.5315 3.4469 2.92553 6.00853 -175791 -136467 8705.76 34994.2 11390.8 -16401.4 -7.4173 
1226 1 12.8016 2.23108 2.92421 6.01395 -169770 -147582 -4531.6 57456 -5015.34 -9589.44 -7.41595 
1227 1 13.4884 0.990948 2.92538 6.00526 -164285 -149977 3114.49 43387.4 9088.67 -14967.9 -7.41673 
1392 1 15.0321 8.33863 2.93253 6.01703 -178116 -132338 -16965.3 24901.8 -53.646 -4274.69 -7.41539 
1393 1 15.7197 7.0987 2.93054 6.01349 -181242 -128326 16946.4 17594.5 13324.7 -16998.8 -7.41817 
1394 1 14.9911 5.88224 2.9282 6.01907 -174194 -139490 -13506.2 42495.4 -2474.27 -4538.05 -7.41551 
1395 1 15.6784 4.64227 2.92732 6.00869 -174386 -136335 12484.7 33689.2 13915 -14548.3 -7.41772 
1396 1 14.9489 3.42622 2.92638 6.01466 -169079 -145769 -8401.42 57202.7 -5525.42 -5513.59 -7.41582 
1397 1 15.6361 2.18626 2.927 6.00561 -166540 -145238 6577.24 45233.4 12318.9 -12462.5 -7.41715 
1398 1 14.9059 0.970563 2.92706 6.00831 -162232 -151921 -2209.87 65500.6 -9079.7 -7207.33 -7.41631 
1563 1 17.8655 8.29449 2.93353 6.01365 -179535 -130795 21206.1 16227.6 16335.9 -20203.3 -7.41856 
1564 1 17.1372 7.07787 2.9303 6.0199 -168510 -141058 -18046.7 40548.4 -2101.57 -5455.46 -7.41545 
1565 1 17.8251 5.8382 2.92842 6.00761 -172789 -138222 16442.9 32781 17211.8 -15954.1 -7.4181 
1566 1 17.0959 4.622 2.92713 6.01429 -165354 -146346 -12743.9 56045.9 -5292.53 -4701.92 -7.4157 
1567 1 17.7835 3.38226 2.92711 6.00392 -166877 -144332 10340.9 46251.5 15933.3 -12532.2 -7.41754 
1568 1 17.0536 2.16638 2.92752 6.00828 -162083 -149918 -6095.1 66954 -8861.6 -4980.54 -7.41613 
1569 1 17.741 0.926632 2.92936 6.00304 -160537 -149927 3238.67 53963.5 12536.7 -9849.49 -7.41691 
10626 2 10.4805 8.78028 6.4743 6.01102 -119460 -192305 10452.7 -10177.2 9932.98 -18597.3 -7.41747 
10627 2 11.2114 7.56541 6.47385 6.01532 -115993 -201420 -10267.4 -4985.68 5121.58 -4509.45 -7.41552 
10628 2 10.522 6.32679 6.47576 6.01102 -126736 -185582 9647.91 -27281.9 12880.6 -18942.6 -7.41733 
10629 2 11.2533 5.11205 6.47523 6.00949 -127292 -191082 -8224.5 -20593.8 2774 -9782.38 -7.41559 
10630 2 10.565 3.87285 6.47781 6.00771 -137231 -176456 7044.26 -42953.9 13122.3 -18781.3 -7.41698 
10631 2 11.2964 2.6581 6.47706 6.00532 -141898 -176533 -4507.58 -33051.6 -1066.08 -14828.9 -7.41586 
10632 2 10.6091 1.41833 6.47959 6.00833 -151166 -165164 3117.8 -52929.3 10038 -17678.4 -7.4165 
10633 2 11.3403 0.203333 6.47831 6.00472 -158283 -158867 319.418 -38157.8 -5605.45 -18535.5 -7.4163 
10797 2 13.319 8.82636 6.47022 6.01751 -117917 -195373 -14538 -3468.35 4041.94 -1669.59 -7.41543 
10798 2 12.6292 7.58795 6.47107 6.01177 -128071 -181672 13505.8 -26708.8 10749.2 -17583.6 -7.41782 
10799 2 13.3599 6.37282 6.47 6.01203 -127230 -187291 -12356.6 -19758.4 1948.3 -4941.28 -7.41549 
10800 2 12.671 5.1339 6.47188 6.00715 -135990 -174562 10733.1 -43419.6 12744.6 -15950.2 -7.41751 
10801 2 13.402 3.91885 6.47125 6.00755 -138502 -176929 -8380.72 -34169.6 -1190.74 -8785.78 -7.41574 
10802 2 12.714 2.67944 6.47365 6.00551 -146554 -166294 6320.4 -56300.4 12217.3 -14164.5 -7.41702 
10803 2 13.445 1.46429 6.4732 6.00479 -151488 -164044 -2949.41 -43002.8 -5223.23 -12379.6 -7.41618 
10804 2 12.7578 0.224458 6.47531 6.00791 -158590 -157076 945.088 -61618.2 9195.65 -12042.1 -7.41646 
10968 2 14.7368 8.84856 6.46718 6.01378 -132110 -176558 17606.2 -24845.4 10161.3 -18798.7 -7.41824 
10969 2 15.4668 7.63303 6.46524 6.01422 -128727 -180807 -16719.9 -17668.5 2540.88 -3206.98 -7.41542 
10970 2 14.7776 6.39427 6.46661 6.00853 -138480 -169648 14853.1 -41700.5 12615.5 -15320.3 -7.41797 
10971 2 15.508 5.17886 6.46566 6.00952 -137885 -173007 -12613.7 -33272.9 -535.383 -5163.72 -7.41562 
10972 2 14.8196 3.93967 6.46802 6.00515 -145794 -163653 10242.6 -56238.2 13485.7 -12183.1 -7.41751 
10973 2 15.5503 2.7243 6.468 6.00612 -147673 -164342 -6923.78 -44810.9 -4508.9 -7703.97 -7.41601 
10974 2 14.8626 1.48473 6.47061 6.00497 -154195 -157757 4293.37 -64992.7 12147.8 -9469.46 -7.41691 
10975 2 15.5932 0.269269 6.47099 6.00444 -157579 -154808 -212.759 -49246.1 -8825.46 -10250 -7.41654 
11139 2 17.5741 8.89274 6.46014 6.01456 -128506 -175873 -21265.6 -16201.7 4461.29 -4961.01 -7.41541 
11140 2 16.8845 7.65417 6.46122 6.0103 -141862 -165034 19250.2 -40106.2 13952.3 -17764.5 -7.41839 
11141 2 17.6144 6.43839 6.45961 6.01035 -137551 -167861 -16985.6 -32440.7 1229.57 -5030.69 -7.41556 
11142 2 16.9256 5.19934 6.462 6.00594 -147507 -159144 14631.4 -55384 15135.4 -13104.7 -7.41795 
11143 2 17.6559 3.98369 6.46197 6.00647 -145753 -161406 -11182.2 -45940.5 -2936.66 -5976.32 -7.41587 
11144 2 16.9678 2.74429 6.4652 6.00369 -152900 -155375 8416.4 -66472.4 14622.7 -9260.88 -7.41736 
11145 2 17.6983 1.52869 6.46629 6.00374 -153470 -155647 -4217.01 -53762.6 -7816.38 -7664.95 -7.41633 
11146 2 17.0107 0.28905 6.46935 6.00446 -157932 -152539 1233.8 -70823.1 12295.9 -6506.12 -7.41672 
1734 1 19.283 8.27423 2.93322 6.01851 -165555 -140406 -22866 41500.2 -101.547 -9077.38 -7.41546 
1735 1 19.9715 7.03484 2.93042 6.00506 -174047 -138917 20808.9 34499.6 21038.9 -20363.5 -7.4185 
1736 1 19.2426 5.81843 2.92791 6.01294 -161909 -146942 -17419.2 56925.5 -3776.1 -7204.28 -7.41563 
1737 1 19.9306 4.57892 2.92714 6.0008 -167426 -144679 14343.7 49212.4 20135.8 -15581.4 -7.41792 
1738 1 19.2009 3.36288 2.92702 6.00681 -160036 -149864 -10509.2 69395.8 -7845.1 -6058.12 -7.41598 
1739 1 19.8886 2.12328 2.92861 5.99928 -161978 -148257 7026.3 59517.6 16788 -11866.9 -7.41729 
1740 1 19.1585 0.907458 2.93026 6.00273 -158447 -150474 -2647.54 76409.4 -11982.4 -6319.62 -7.4165 
1905 1 22.1172 8.23272 2.93463 6.002 -179924 -135504 25992.6 40026.4 24628.2 -26202.3 -7.41897 
1906 1 21.3889 7.01589 2.93038 6.01051 -161712 -144645 -22385.6 61720 -1185 -11647.8 -7.41562 
1907 1 22.0774 5.77662 2.92889 5.99667 -171161 -143215 18895 55460.5 24541.9 -20778.3 -7.41834 
1908 1 21.3481 4.5603 2.92725 6.00395 -158637 -149252 -15268.5 74998.5 -5804.16 -9813.96 -7.41589 
1909 1 22.0361 3.32089 2.92835 5.99416 -164352 -147331 11131.6 67727.3 21580.1 -16115 -7.41768 
1910 1 21.3061 2.10489 2.92933 5.99944 -157515 -150024 -7106.04 84145.6 -10781.9 -8938.72 -7.41632 
1911 1 21.9939 0.865365 2.93284 5.99402 -158577 -149111 3078.27 74400.4 16219.8 -12760.7 -7.41706 
2076 1 23.5347 8.21499 2.93561 6.00793 -166597 -137956 -27767.2 70277.1 1664.69 -16042.8 -7.41564 
2077 1 24.2234 6.97592 2.93366 5.99228 -178886 -137588 24349.5 65096.6 28406.1 -26427.5 -7.41886 
2078 1 23.4948 5.75913 2.92995 6.00052 -160868 -145656 -20295.4 84425.2 -3095.7 -14589.8 -7.41585 
2079 1 24.1831 4.5199 2.93041 5.98828 -169646 -144230 15849.6 79185.2 26445.4 -21526.4 -7.41814 
2080 1 23.4536 3.30358 2.92966 5.99502 -157882 -148613 -11899.3 95328.5 -8687.02 -13331.5 -7.41619 
2081 1 24.1415 2.06421 2.93277 5.98729 -161985 -147370 7278.19 88603.8 21404.7 -17525.6 -7.41746 
2082 1 23.4114 0.848151 2.93464 5.99196 -156463 -148426 -2903.17 101102 -14470 -13216.6 -7.41669 
2247 1 26.3685 8.17741 2.94167 5.98859 -190137 -127570 30730.6 76946.4 31061.2 -30848.6 -7.41948 
2248 1 25.6409 6.95992 2.93604 5.99742 -167446 -138014 -25710.7 96662.8 -459.173 -18566.2 -7.41582 
2249 1 26.3295 5.72089 2.93592 5.98259 -178185 -137259 21428.2 93015.7 30656.6 -26558.2 -7.41869 
2250 1 25.6006 4.50405 2.93288 5.99045 -161529 -144337 -16936.7 109595 -6114.89 -17832.3 -7.41611 
2251 1 26.2887 3.26486 2.93524 5.97978 -167852 -143368 12070 105299 26660.2 -22547.8 -7.41794 
2252 1 25.559 2.04846 2.93527 5.98588 -157819 -146816 -7708.7 118061 -12557.5 -17463.4 -7.41653 
2253 1 26.2469 0.809183 2.93983 5.97836 -158709 -147136 3087.06 111426 19822.4 -19531.4 -7.41728 
2418 1 27.7859 8.16313 2.94523 5.99529 -177721 -126993 -31691.6 109819 1441.72 -20674.9 -7.41577 
2420 1 27.7469 5.70677 2.93968 5.9867 -168799 -136862 -22340.3 125208 -3657.5 -20972.8 -7.41604 
2422 1 27.7062 3.25086 2.9388 5.9802 -162014 -142650 -12747.4 136644 -10138.9 -21055.6 -7.4164 
2424 1 27.6644 0.795228 2.94294 5.9764 -156787 -145773 -3076.89 142049 -17182.9 -21573.6 -7.4169 
11310 2 18.9918 8.91336 6.45522 6.01075 -142942 -164284 23956.2 -40683.1 17040.8 -22631.9 -7.4188 
11311 2 19.7212 7.69724 6.45292 6.00811 -134548 -165499 -21554.1 -33413.6 3699.98 -7924.24 -7.41557 
11312 2 19.032 6.45842 6.45523 6.00618 -148980 -156199 19284.4 -56116.1 17988.9 -16963.1 -7.41837 
11313 2 19.7618 5.24246 6.45487 6.00472 -143085 -158520 -15546.4 -48355.9 -529.234 -7421.93 -7.4158 
11314 2 19.0734 4.00322 6.45852 6.00268 -153219 -152127 12988.2 -68746.4 17562.4 -11986 -7.41779 
11315 2 19.8036 2.78741 6.45992 6.00161 -150330 -154167 -8474.25 -58966.3 -5846.54 -7846.17 -7.41618 
11316 2 19.1158 1.54791 6.46409 6.00132 -156246 -150726 5452.93 -76136.2 15472.7 -8314.59 -7.41714 
11317 2 19.8461 0.33216 6.46629 5.99972 -156442 -151014 -760.355 -63068.1 -11639.1 -9313.06 -7.41668 
11481 2 21.8287 8.95493 6.44601 6.00258 -127265 -168619 -26610.1 -37218.2 6006.69 -12225.5 -7.41562 
11482 2 21.1388 7.71651 6.44797 6.00462 -147275 -157645 24207.7 -59785.4 21981.6 -22520.6 -7.41882 
11483 2 21.8683 6.50026 6.44724 5.99992 -137664 -158930 -20158.9 -53209.3 2142.84 -11068.8 -7.4158 
11484 2 21.1794 5.26129 6.45081 6.00064 -152319 -150962 17779.1 -73586.1 21397.3 -17039.8 -7.41822 
11485 2 21.9093 4.04524 6.45217 5.99706 -145908 -153296 -12849.4 -66261.4 -3186.89 -10457.2 -7.4161 
11486 2 21.2212 2.80592 6.45698 5.99793 -155281 -148653 10093.2 -83344.4 19197.9 -12564.9 -7.41756 
11487 2 21.9514 1.59001 6.45967 5.99482 -152667 -150560 -5007.66 -73808.7 -9640.37 -10910.9 -7.41651 
11488 2 21.2636 0.350508 6.46455 5.99738 -156673 -149015 1577.78 -87186.8 15490.5 -9772.22 -7.4169 
11652 2 23.2464 8.973 6.44103 6.0007 -140910 -164776 29587 -66424.6 26235.1 -27975.9 -7.41935 
11653 2 23.9756 7.7565 6.44014 5.99295 -128418 -164594 -25349.5 -60588.2 4303.49 -15283.3 -7.41583 
11654 2 23.2859 6.518 6.44304 5.99677 -148289 -154234 22780.7 -81293.9 25822.4 -22932.9 -7.41871 
11655 2 24.0155 5.30171 6.4442 5.99031 -138846 -155866 -17530.3 -75834.9 -459.037 -14371.1 -7.41607 
11656 2 23.3269 4.06269 6.44881 5.99338 -152730 -148884 14922.3 -93305.6 23582.1 -18289.4 -7.41801 
11657 2 24.0569 2.84659 6.45161 5.98804 -147450 -151202 -9410.9 -86798.5 -6942.92 -14058.4 -7.41641 
11658 2 23.3689 1.60727 6.45715 5.99152 -155113 -147694 6220.68 -100382 19660.3 -14865.9 -7.41732 
11659 2 24.0992 0.391268 6.46032 5.98678 -154893 -148965 -1141.2 -91350.8 -14386.3 -14995 -7.41688 
11823 2 26.084 9.01058 6.43467 5.98525 -116100 -175221 -31321.2 -69633.3 5424.48 -18597.9 -7.4158 
11824 2 25.3933 7.77276 6.43647 5.99103 -140193 -162445 28162.2 -91033 29982.5 -28024.4 -7.41928 
11825 2 26.1226 6.55623 6.43749 5.98244 -128821 -163002 -22817.6 -86945.2 1664.45 -18170 -7.41605 
11826 2 25.4332 5.31773 6.44107 5.98736 -147240 -153133 19934.9 -105306 28173.2 -24002.2 -7.41853 
11827 2 26.163 4.1014 6.44371 5.97995 -139896 -154963 -14158.6 -101226 -4176.32 -17702.8 -7.41635 
11828 2 25.4745 2.86243 6.44884 5.98471 -151880 -148563 11057.7 -115665 24339.5 -20515.2 -7.41778 
11829 2 26.2047 1.64623 6.45216 5.97841 -149758 -150206 -5570.23 -109928 -11751.6 -17953.6 -7.41675 
11830 2 25.5167 0.407011 6.45775 5.98401 -155015 -147254 1733.54 -120223 18913.6 -18245.3 -7.4171 
11994 2 27.5018 9.02511 6.43202 5.98405 -128861 -174272 34062.4 -101157 33012.2 -31261.2 -7.41993 
11996 2 27.5403 6.57054 6.43519 5.98018 -138586 -161285 25285.9 -117967 32214.9 -28368.5 -7.41912 
11998 2 27.5807 4.11552 6.4414 5.97702 -145979 -152645 16074.8 -131818 29018.1 -25427.8 -7.4183 
12000 2 27.6222 1.66023 6.44953 5.97551 -151875 -148083 6576.79 -140366 23777.1 -23020.9 -7.41754 
2417 1 28.5124 9.38147 2.95207 5.98603 -203104 -114488 37726.2 89306.4 32245.1 -33126.4 -7.42016 
2419 1 28.4749 6.9243 2.94481 5.97799 -189137 -126805 27796.2 107461 33623.1 -29931.9 -7.41933 
2421 1 28.4353 4.46778 2.94114 5.97294 -176504 -136237 17604 122851 31299.2 -26574.9 -7.4185 
2423 1 28.3943 2.01176 2.94236 5.97077 -164849 -143003 7836.29 132600 25406 -23613 -7.41775 
2588 1 29.9297 9.369 2.95636 5.99431 -189829 -114014 -38237.4 122184 2317.3 -20839.9 -7.41565 
2589 1 30.6191 8.13039 2.95601 5.97497 -201005 -114267 34649.3 120824 35105.4 -31151.5 -7.42002 
2590 1 29.8922 6.91203 2.94951 5.98427 -178739 -126651 -28279 140055 -1799.69 -22126.2 -7.41593 
2591 1 30.581 5.67327 2.9502 5.96757 -186718 -126216 23784.6 139362 34756.2 -28751.6 -7.41913 
2592 1 29.8527 4.45567 2.9457 5.97578 -169311 -135802 -18135.6 154890 -7686.62 -22972 -7.41627 
2593 1 30.5411 3.21679 2.94799 5.96353 -173088 -136035 13196.3 153195 30478.1 -26343.2 -7.41828 
2594 1 29.8117 1.99975 2.94626 5.96978 -161170 -141903 -8122.52 164081 -14813.1 -23747.2 -7.41673 
2595 1 30.5 0.760867 2.94997 5.96109 -159836 -144164 3254.65 159608 23073.9 -24379 -7.41755 
2759 1 32.762 9.33917 2.96802 5.9735 -212013 -101312 41661.5 131826 35216 -30470.2 -7.42072 
2760 1 32.0364 8.11993 2.96106 5.98325 -189560 -115225 -34741.6 152498 -742.93 -21513.7 -7.41577 
2761 1 32.7257 6.88144 2.96125 5.96405 -197252 -114866 30377.3 153185 36781.9 -28939.7 -7.4198 
2762 1 31.9984 5.66305 2.95529 5.97305 -178308 -127002 -24007.5 170784 -5569.66 -23005.7 -7.41612 
2763 1 32.6872 4.42444 2.95636 5.95761 -182442 -126902 19092 171073 34510.8 -27270.8 -7.41887 
2764 1 31.9585 3.20677 2.9525 5.96486 -167997 -135839 -13486.5 184193 -12169.4 -24213.2 -7.41654 
2765 1 32.647 1.9681 2.95469 5.95486 -168009 -137638 8395.28 182108 28486.2 -25706.9 -7.41803 
2766 1 31.9174 0.750935 2.95339 5.95956 -158327 -142749 -3282.21 190043 -19703.1 -25411.9 -7.41709 
2930 1 34.1793 9.33038 2.97285 5.98234 -199688 -104076 -41517.8 161527 -457.856 -19756.5 -7.41558 
2931 1 34.8691 8.09219 2.97286 5.96242 -206705 -103702 37147.3 163298 37421.7 -27570.1 -7.42047 
2932 1 34.143 6.87299 2.96629 5.97198 -187845 -117482 -30341.7 182819 -4015.25 -21585.6 -7.41593 
2933 1 34.8322 5.63467 2.96638 5.9538 -191768 -116927 25370.4 184812 37215.7 -26530.1 -7.4195 
2934 1 34.1045 4.41628 2.96103 5.96193 -176162 -128431 -19253.6 200410 -9597.24 -23101.3 -7.41634 
2935 1 34.7934 3.17788 2.96173 5.94865 -176628 -129322 14000.7 200722 33043.4 -25483.3 -7.41856 
2936 1 34.0644 1.96014 2.95844 5.95439 -164951 -137321 -8594.15 211084 -16791.4 -24450.7 -7.41685 
2937 1 34.7532 0.721786 2.95979 5.94669 -161628 -141136 3305.89 207810 25647.8 -24576.5 -7.41774 
3101 1 37.0114 9.30528 2.98376 5.96238 -214245 -93875.7 43900.7 169479 36917.3 -25267.7 -7.42112 
3102 1 36.2864 8.0853 2.97732 5.97219 -196260 -108297 -36961.2 190420 -3098.65 -19347.7 -7.41572 
3103 1 36.9762 6.8473 2.97677 5.95199 -199890 -107383 31871.2 193794 38572.9 -24625.6 -7.42013 
3104 1 36.2495 5.62818 2.97071 5.96086 -184337 -120700 -25396 211698 -7374.42 -20948.1 -7.41612 
3105 1 36.9389 4.39007 2.97016 5.94463 -185184 -120553 19975.8 214101 36449.6 -24002.1 -7.41913 
3106 1 36.2107 3.1717 2.96542 5.95137 -172307 -130982 -14212.6 227243 -13722.5 -22341.9 -7.4166 
3107 1 36.8998 1.93358 2.96526 5.94116 -170104 -133367 8691.25 226604 30573.1 -23439.8 -7.4182 
3108 1 36.1707 0.715773 2.96241 5.94487 -160461 -139989 -3488.35 233878 -21346.7 -23668.9 -7.41721 
11995 2 28.2309 7.80835 6.4331 5.97464 -116889 -173965 -28827.8 -98330.6 2802.51 -20758.9 -7.41596 
11997 2 28.27 5.35398 6.43756 5.97163 -130211 -162364 -19483.5 -115851 -1913.22 -20733 -7.41627 
11999 2 28.3107 2.89911 6.44452 5.96957 -142331 -154081 -10361.5 -128902 -8902.53 -20783.8 -7.41664 
12001 2 28.3524 0.44385 6.45211 5.96908 -153654 -148205 -1382.42 -134858 -17299.5 -21619.1 -7.41713 
12165 2 30.3406 9.05779 6.4313 5.96822 -104256 -186362 -35397 -108597 2942.88 -21689.3 -7.4158 
12166 2 29.6487 7.82078 6.43193 5.97267 -127884 -171881 31107.5 -129491 35033.4 -30721.2 -7.41978 
12167 2 30.3781 6.60397 6.43409 5.96442 -119303 -172452 -25435.7 -129032 -486.76 -22408.3 -7.41614 
12168 2 29.6877 5.36619 6.43621 5.969 -137846 -159829 21406.9 -146825 33032.9 -28661.4 -7.4189 
12169 2 30.4176 4.14953 6.43896 5.96153 -133330 -160940 -15667.4 -146276 -6355.18 -22710.9 -7.41651 
12170 2 29.7283 2.91116 6.44253 5.96675 -146310 -151699 11600.7 -159663 28527.5 -26580.5 -7.41806 
12171 2 30.4585 1.69457 6.44496 5.96018 -146878 -151976 -6216.89 -157115 -14358.4 -23197.6 -7.41697 
12172 2 29.77 0.455836 6.44917 5.9668 -153763 -146400 1764.94 -165827 22135.1 -24884.8 -7.41732 
12336 2 31.7585 9.06839 6.43119 5.96583 -116405 -182971 37375.2 -138549 36342.6 -31106.3 -7.42047 
12337 2 32.4875 7.8513 6.43327 5.95886 -108445 -183238 -31845.6 -139591 67.4354 -22534.9 -7.41594 
12338 2 31.7959 6.61427 6.43381 5.96151 -128354 -168614 27176.1 -159054 35873.7 -29924.6 -7.41955 
12339 2 32.5255 5.39735 6.43616 5.95502 -123777 -169601 -21479.9 -160599 -4423.26 -23320.6 -7.41632 
12340 2 31.8352 4.15961 6.43798 5.95841 -138973 -157492 16921.1 -176186 32627.2 -28400.1 -7.41863 
12341 2 32.5652 2.94278 6.44007 5.95258 -138833 -158045 -11477.6 -176451 -11451.2 -23825.3 -7.41677 
12342 2 31.876 1.70452 6.44284 5.9575 -148924 -149300 6788.16 -187306 26933.4 -26814.6 -7.41779 
12343 2 32.606 0.487626 6.44371 5.95237 -153424 -147555 -1672.01 -184191 -20101.5 -24531.1 -7.41733 
12507 2 34.5983 9.09608 6.43437 5.95528 -98286.5 -192888 -38467.5 -146926 -96.4872 -21344.7 -7.41569 
12508 2 33.9054 7.85982 6.4338 5.95526 -118770 -177416 33367.1 -167599 37324.6 -29480.2 -7.42023 
12509 2 34.6346 6.6426 6.43584 5.95053 -114505 -178466 -27660.4 -170941 -3223.79 -22621.1 -7.41609 
12510 2 33.9432 5.40555 6.43613 5.95124 -130900 -164196 22645.8 -188614 35674.3 -28504.5 -7.41925 
12511 2 34.6729 4.18845 6.43783 5.94694 -130444 -165091 -17120.9 -191348 -8910.41 -23355.7 -7.41654 
12512 2 33.9828 2.95076 6.43899 5.94919 -142552 -153668 12094.9 -204610 31163.2 -27203.1 -7.41833 
12513 2 34.7128 1.73365 6.4397 5.9454 -146162 -152837 -6917.21 -204556 -16885.8 -23902.8 -7.41707 
12514 2 34.0236 0.495519 6.44127 5.95006 -153742 -145225 1754.15 -212685 24455.1 -25804.2 -7.41751 
12678 2 36.0162 9.10305 6.43528 5.95073 -109891 -185132 39825.6 -172413 37471.2 -27843.9 -7.42089 
12679 2 36.7449 7.88549 6.43713 5.94802 -106320 -186135 -34041.1 -177182 -2710.8 -20900.5 -7.41583 
12680 2 36.0524 6.64914 6.43641 5.94574 -123042 -170791 28759.7 -196395 37495.1 -27285 -7.4199 
12681 2 36.7817 5.43172 6.43776 5.94338 -122686 -172196 -23046 -201314 -6929.52 -21917.5 -7.41628 
12682 2 36.0906 4.19465 6.43761 5.94248 -135761 -158721 17769.3 -216835 34532.3 -26281.8 -7.4189 
12683 2 36.8203 2.97729 6.4381 5.94044 -138619 -158863 -12418.6 -219618 -13760.1 -22518.3 -7.41679 
12684 2 36.1303 1.73967 6.43834 5.94191 -148186 -148764 7061.37 -230215 28796.8 -25009.9 -7.41798 
12685 2 36.86 0.52219 6.43739 5.94011 -154412 -146144 -1984.3 -228667 -22294.9 -22964.5 -7.41742 
3272 1 38.4286 9.2997 2.9873 5.97186 -202793 -100466 -43636.7 193706 -2790.62 -16818.7 -7.41548 
3273 1 39.1192 8.06205 2.98643 5.95196 -206422 -99273 38442.4 198089 38732.1 -22118.5 -7.42076 
3274 1 38.3935 6.84222 2.98033 5.96122 -191403 -113381 -31787.6 217779 -5703.67 -18329.7 -7.41589 
3275 1 39.0834 5.60444 2.9789 5.94269 -192404 -112317 26208.8 221920 38602.8 -21746.5 -7.41972 
3276 1 38.3562 4.38542 2.97339 5.95035 -179731 -124741 -20117 237747 -10838.6 -19627.6 -7.41634 
3277 1 39.0457 3.14757 2.97196 5.93707 -177980 -125475 14420.4 239629 34579.9 -21460.9 -7.41871 
3278 1 38.3173 1.92922 2.96777 5.94187 -167610 -134327 -8947.56 249810 -17913.2 -20836.3 -7.41691 
3279 1 39.0067 0.691434 2.96667 5.93523 -162977 -138570 3283.96 247414 27344.6 -21224.5 -7.41782 
3443 1 41.261 9.2786 2.99459 5.95321 -210445 -93052.3 44943.5 198387 37935.9 -19419.4 -7.42135 
3444 1 40.5364 8.05811 2.98896 5.9627 -196868 -107291 -38261.8 219215 -4663.2 -15654.9 -7.41565 
3445 1 41.227 6.82068 2.98701 5.94261 -198058 -105478 32577.2 224748 39562.7 -19160.4 -7.42031 
3446 1 40.5007 5.60103 2.98133 5.95087 -185809 -118842 -26231.2 242658 -8416.33 -16772.9 -7.41608 
3447 1 41.1908 4.36348 2.97899 5.93492 -184782 -118197 20412.7 246681 37508 -19034.2 -7.41925 
3448 1 40.4631 3.14456 2.97404 5.9409 -174311 -129127 -14613.2 259794 -14498.8 -17779.8 -7.41661 
3449 1 41.1529 1.90701 2.97183 5.93135 -170949 -131181 8845.85 260330 31764.1 -18991.6 -7.41827 
3450 1 40.4242 0.688637 2.96817 5.93392 -162130 -137961 -3472.96 267073 -22142.9 -18829.7 -7.41726 
3614 1 42.6783 9.27555 2.99597 5.96377 -199769 -102543 -44670.7 216710 -4222.11 -13137 -7.41541 
3615 1 43.3696 8.03849 2.99379 5.94379 -201473 -100331 38959.7 223263 39480.6 -16537.4 -7.42089 
3616 1 42.6443 6.81825 2.98844 5.95253 -190285 -114111 -32453.7 242653 -6628.83 -14060.7 -7.41584 
3617 1 43.335 5.58103 2.98552 5.9346 -189836 -112139 26569.6 248544 39315.7 -16474 -7.41981 
3618 1 42.6081 4.36155 2.98036 5.94149 -179886 -124292 -20453.5 264119 -11429.7 -14840.9 -7.41632 
3619 1 43.2984 3.12425 2.97734 5.92893 -177370 -124379 14637.4 267309 35346.7 -16547.3 -7.41875 
3620 1 42.5703 1.90541 2.973 5.93287 -168799 -133242 -8958.6 277113 -18423.6 -15637.6 -7.41692 
3621 1 43.2604 0.668156 2.97038 5.92742 -164247 -136862 3315.7 275655 28230.1 -16631 -7.41781 
3785 1 45.5114 9.25755 2.99888 5.94604 -202720 -97283.6 45245.9 218415 38557.1 -14024.5 -7.42146 
3786 1 44.7869 8.03679 2.99415 5.95482 -192538 -110586 -38682.4 238604 -5512.13 -11602.6 -7.4156 
3787 1 45.4783 6.79991 2.99097 5.93568 -192881 -107732 32795.9 245881 40055.7 -13968.1 -7.42037 
3788 1 44.7523 5.57992 2.98602 5.94325 -183775 -120639 -26416.8 263378 -8937.06 -12185.7 -7.41605 
3789 1 45.4431 4.34291 2.9825 5.9283 -182289 -118868 20587.7 268852 37961.9 -14088.4 -7.41927 