ITEM: TIMESTEP
29
ITEM: NUMBER OF ATOMS
8
ITEM: BOX BOUNDS pp pp pp
0.0000000000000000e+00 4.2600002000000003e+00
0.0000000000000000e+00 2.4595120000000001e+00
0.0000000000000000e+00 1.8399999600000001e+01
ITEM: ATOMS id type x y z c_csym c_2[1] c_2[2] c_2[3] c_2[4] c_2[5] c_2[6] c_3 
1 1 2.89929e-08 2.16749e-14 7.50298 6.04921 15697.2 15696 -114166 -1.99801e-07 0.00686756 3.15445e-09 -7.413 
2 1 1.42 -1.31969e-14 7.50503 6.04921 -8647.58 -8649.51 114167 -8.08141e-07 -0.00164457 4.22085e-09 -7.42673 
3 1 2.13 1.22976 7.50298 6.04921 15699.7 15694.3 -114166 -6.26737e-07 -0.00275623 1.01124e-09 -7.413 
4 1 3.55 1.22976 7.50503 6.04921 -8643.32 -8648.01 114167 -4.96554e-08 0.00906596 -2.5959e-09 -7.42673 
5 2 0.71 1.22976 10.895 6.04921 -8642.75 -8648.72 114167 8.08119e-08 0.00998994 -5.07282e-09 -7.42673 
6 2 2.13 1.22976 10.897 6.04921 15700.3 15693.6 -114166 1.06539e-06 0.000820681 -5.03978e-09 -7.413 
7 2 2.84 4.23383e-14 10.895 6.04921 -8646.71 -8650.24 114167 8.28228e-07 0.000259135 3.58372e-09 -7.42673 
8 2 -1.15168e-07 -2.89726e-14 10.897 6.04921 15698 15695.2 -114166 -1.47588e-07 0.0104412 1.16738e-09 -7.413 
