ITEM: TIMESTEP
0
ITEM: NUMBER OF ATOMS
148
ITEM: BOX BOUNDS xy xz yz pp pp pp 
0.000 22.441 7.480 
0.000 12.956 0.000 
-20.000 20.000 0.000 
ITEM: ATOMS type x y z
C 7.27345302921561 10.505466876539042 0
C 9.499291006573644 11.551657993278658 0
C 11.725433802568672 12.601013799321171 0
C 4.850119944736185 7.003961502232321 0
C 7.07121800543366 8.05420316258263 0
C 9.295182796841404 9.102240140716217 0
C 11.52109344308509 10.150945981471688 0
C 13.74646703644508 11.203241974490245 0
C 15.970996060211752 12.257990599535923 0
C 2.4302578898882525 3.498776175435038 0
C 4.651331142761272 4.550194468804945 0
C 6.872313682501164 5.6025373872140625 0
C 9.09531261708207 6.65303181339256 0
C 11.320066258204768 7.702301483275067 0
C 13.544816164177254 8.752930019033352 0
C 15.768311978510638 9.805884041725205 0
C 17.991175901771097 10.859525200748637 0
C 20.21494016716073 11.910126666279899 0
C 8.688076017740261e-06 1.5048189082728255e-05 0
C 2.2258650779232663 1.0462171190241605 0
C 4.449945829844766 2.096775193724804 0
C 6.6727367045159145 3.15032376560691 0
C 8.896031115835699 4.203528385107243 0
C 11.120770519463234 5.25401085443861 0
C 13.345705086557617 6.303105913461903 0
C 15.56872018209144 7.353731701669162 0
C 17.789622478357252 8.406107715198646 0
C 20.010870713680706 9.457582086864972 0
C 6.469979165930225 0.6983349380698262 0
C 8.69439600267398 1.7530246883980414 0
C 10.919893584296311 2.8052591378706246 0
C 13.145648495471317 3.8539904830012435 0
C 15.369647495769163 4.901968784248494 0
C 17.590836115942228 5.952321587320656 0
C 10.715537241438746 0.35535748132196454 0
C 12.94166096174091 1.4046577686243074 0
C 15.167605522318656 2.450820288604987 0
C 8.08393267078249 11.67099550000062 0
C 10.310361000670788 12.717720264894497 0
C 5.65667393094094 8.171979601005784 0
C 7.87923708019966 9.220502482786847 0
C 10.10468599798263 10.267795980405463 0
C 12.330792793250207 11.3179263578617 0
C 14.555869744571746 12.371836246921271 0
C 3.2375210558089784 4.66685493301214 0
C 5.457751970076281 5.7187845541098605 0
C 7.679267984432229 6.769940094763692 0
C 9.903188376519166 7.819083400687139 0
C 12.12849425941915 8.868451066007063 0
C 14.353230766280543 9.920583407092712 0
C 16.576653616772564 10.974758799036115 0
C 18.800547993530383 12.02768067089547 0
C 0.8113476454921984 1.1654215228005855 0
C 3.0357111261960688 2.213583090729733 0
C 5.258158988093286 3.265512736896854 0
C 7.480143950594142 4.318861026233273 0
C 9.704028267305217 5.370382099373263 0
C 11.928943976706408 6.419871357504019 0
C 14.153180021686833 7.469838206881896 0
C 16.375663317000686 8.522020129690329 0
C 18.596814580761468 9.574762130573317 0
C 20.81944328045129 10.624564576921436 0
C 5.055071033035588 0.8128290638388946 0
C 7.279114630009868 1.8672273654319995 0
C 9.503748772148601 2.9207621869547298 0
C 11.729176265285256 3.9713829607425555 0
C 13.954136774466267 5.019890060212997 0
C 16.176655006755663 6.069395056699689 0
C 18.397056013441453 7.120876657866907 0
C 9.300297913745396 0.4703516715259253 0
C 11.52592889825024 1.5223731151469837 0
C 13.752151051204056 2.5701005503392143 0
C 15.976713291765861 3.617109549478253 0
C 13.545654953773628 0.11996093637648775 0
Si 5.665445845905394 9.102293805216606 3.39
Si 7.687028915485866 10.505421471466667 3.39
Si 9.706244554328824 11.910112052797256 3.39
Si 3.8397655488321285 5.253976354875932 3.39
Si 5.865337568752818 6.6531729373800665 3.39
Si 7.889426495657111 8.054130458562613 3.39
Si 9.910461945630754 9.457566128430825 3.39
Si 11.930197958195393 10.859535787248552 3.39
Si 13.950308678078702 12.25793257294154 3.39
Si -8.68807601774086e-06 -1.5048189082729038e-05 3.39
Si 2.0190399663048177 1.4046114338552425 3.39
Si 4.040833156256415 2.805369057848447 3.39
Si 6.064586203106189 4.203406942818884 3.39
Si 8.088422105621964 5.602362807856111 3.39
Si 10.110527950771855 7.003950400848665 3.39
Si 12.131593295181641 8.406143661627732 3.39
Si 14.152776657109225 9.805948481786137 3.39
Si 16.174810419856886 11.20329190775879 3.39
Si 18.195813766704884 12.601000256057935 3.39
Si 4.245134369739458 0.35529968429235226 3.39
Si 6.26612726792065 1.7530102429081986 3.39
Si 8.288009170894533 3.1503069156306247 3.39
Si 10.30934825224843 4.550204036458642 3.39
Si 12.330397097716542 5.952282517738061 3.39
Si 14.352639631607754 7.353867610019135 3.39
Si 16.3762266369014 8.752891790205847 3.39
Si 18.400222581217957 10.15107880839819 3.39
Si 20.42195846016799 11.551626537858823 3.39
Si 8.490592552554041 0.6984089828036728 3.39
Si 10.510667578612582 2.096846191886129 3.39
Si 12.530328180873896 3.4986794612499663 3.39
Si 14.551591583050811 4.901990403807918 3.39
Si 16.575567885635362 6.303214481142946 3.39
Si 18.601139107016948 7.702273936734387 3.39
Si 12.734692704914506 1.0461381161710965 3.39
Si 14.753626157342396 2.45085332518683 3.39
Si 16.775557340289534 3.8538549457443967 3.39
Si 6.271929669993097 10.386205163697959 3.39
Si 8.291609974356806 11.790818313689593 3.39
Si 4.448681312931775 6.536444109171346 3.39
Si 6.473779682899219 7.936353512195013 3.39
Si 8.496389012108574 9.339198026459893 3.39
Si 10.516005793468954 10.74297983734722 3.39
Si 12.535385106122119 12.143482146024345 3.39
Si 2.624462391091979 2.6884379374005776 3.39
Si 4.6481961145981305 4.087837814983111 3.39
Si 6.672854655232277 5.48631806105892 3.39
Si 8.696311411335138 6.88696414231977 3.39
Si 10.717874437572993 8.289434490082384 3.39
Si 12.738486825836318 9.690780568453466 3.39
Si 14.759326115603368 11.089113026039273 3.39
Si 16.78060303806079 12.486001361880149 3.39
Si 2.8300016485965753 0.23859506164479813 3.39
Si 4.850475522569714 1.6382586736180897 3.39
Si 6.872720467786372 3.035739868970575 3.39
Si 8.89521463427428 4.434143009455752 3.39
Si 10.91674893805483 5.8354044147055175 3.39
Si 12.93805002083368 7.237502737305064 3.39
Si 14.96066995117359 8.637594884654709 3.39
Si 16.984001732192926 10.035425867311258 3.39
Si 19.006208143020295 11.433961016635513 3.39
Si 21.025989523531535 12.836321059643408 3.39
Si 7.0755429432214285 0.5844154539687779 3.39
Si 9.096542436468134 1.9815029479409607 3.39
Si 11.11648471117365 3.3815452074611474 3.39
Si 13.136942241315317 4.784230653457374 3.39
Si 15.159558507756984 6.186417763142577 3.39
Si 17.184376451096078 7.586001471146787 3.39
Si 19.20947672753694 8.984856557574362 3.39
Si 11.32014787051682 0.9286532627650941 3.39
Si 13.339071844762616 2.3315006233060345 3.39
Si 15.359546615864351 3.7357848386479917 3.39
Si 17.383565861507265 5.137239970730443 3.39
Si 15.564293013435137 1.2852607271788747 3.39
