ITEM: TIMESTEP
0
ITEM: NUMBER OF ATOMS
9076
ITEM: BOX BOUNDS xy xz yz pp pp pp 
-58.57822718 117.15645437 -58.57822718 
0.00000000 101.46046570 0.00000000 
-20.000 20.000 0.000 
ITEM: ATOMS type x y z
C -56.481879035702484 100.17332628763765 0
C -54.319169053166725 101.34666849696026 0
C -54.38440903879108 98.88837825172934 0
C -52.22170321988125 100.06432078712008 0
C -50.06003775284699 101.24457069871252 0
C -54.44737356454585 96.4313623865884 0
C -52.28466366433477 97.60739504705464 0
C -50.121990323775364 98.78671891509718 0
C -47.960407196155835 99.97070143222297 0
C -45.80062893943931 101.15963651086362 0
C -52.34445185970469 95.1518536196276 0
C -50.182161040050296 96.33113654253616 0
C -48.01972931070653 97.5140154989607 0
C -45.85856394390508 98.70183118402996 0
C -43.69897430912657 99.89435501125007 0
C -41.54128701237938 101.09170528720779 0
C -52.3995257299359 92.6976435112746 0
C -50.23844233573285 93.87691876349146 0
C -48.076431001360646 95.05953317536931 0
C -45.914863628168106 96.24624125446631 0
C -43.75410114368649 97.4377757020848 0
C -41.59496534472245 98.6338888090877 0
C -39.43725443364814 99.83408537982724 0
C -37.281539355200614 101.03821021952037 0
C -50.29020651381022 91.42426195947114 0
C -48.129473980018 92.60672547884056 0
C -45.96810182909652 93.79308419027805 0
C -43.807208380921246 94.98348195262398 0
C -41.646996730997444 96.17817175930834 0
C -39.48855627565039 97.37724395726879 0
C -37.33133917286656 98.58007403330025 0
C -35.17581354047987 99.78644095017701 0
C -33.02194849905455 100.99586814302687 0
C -50.33726083553149 88.97254703046607 0
C -48.17763278908417 90.15552875880147 0
C -46.017502021240446 91.34145479751572 0
C -43.85708378522066 92.53114937476788 0
C -41.6968871656212 93.72459163981802 0
C -39.537829997377244 94.92234014709099 0
C -37.380051526183415 96.12396517233302 0
C -35.22351625609788 97.32911987778037 0
C -33.06838967115188 98.53761430925864 0
C -30.914523184147185 99.74878296062042 0
C -28.762227963040708 100.96248122609147 0
C -48.22149697776573 87.70521125397059 0
C -46.06265953960473 88.89125592477893 0
C -43.90310293820702 90.08015379762698 0
C -41.743502677859155 91.27280808690722 0
C -39.584595693544394 92.46929270922375 0
C -37.42660843562514 93.6697165966962 0
C -35.26952855493545 94.8737294090607 0
C -33.11375874474994 96.08103018899989 0
C -30.959211631160372 97.29123920680249 0
C -28.80575065115768 98.50388161544072 0
C -26.65355272043385 99.71880450874758 0
C -24.502374033445804 100.93549563102621 0
C -48.26042752929547 85.25536994021844 0
C -46.1034239901299 86.44168198480305 0
C -43.9450582536733 87.63044400196299 0
C -41.78657901356198 88.82235866003376 0
C -39.62818898601127 90.01797769511933 0
C -37.470500888981455 91.21729310401943 0
C -35.3132188816681 92.41994876907404 0
C -33.1574172092667 93.62610940486842 0
C -31.002287941405697 94.83505914599999 0
C -28.8483180981544 96.04674223457889 0
C -26.695530331981544 97.26073172524902 0
C -24.543667522259447 98.4767690798591 0
C -22.39267753732198 99.69448766935147 0
C -20.242555021049625 100.9136673546361 0
C -46.14006577284516 83.99282360544753 0
C -43.98332188770456 85.18156940998455 0
C -41.82587664049433 86.37323217079575 0
C -39.66830452695833 87.56795115497451 0
C -37.5108914982879 88.76608187560399 0
C -35.35433653007813 89.9676797207498 0
C -33.19866732530024 91.17261111968365 0
C -31.04361665813999 92.3804317530687 0
C -28.889570033947564 93.5909945177071 0
C -26.736372922468732 94.80404082562062 0
C -24.584074323318532 96.01919224494785 0
C -22.432551613328336 97.23618756291907 0
C -20.28193978248968 98.45470406908618 0
C -18.132077635386125 99.67462682922097 0
C -15.982767939313353 100.89553608850599 0
C -46.17301750318722 81.54414073709314 0
C -44.01765194528593 82.73344618095129 0
C -41.861508157695475 83.92481036246576 0
C -39.70479029422436 85.1189007320937 0
C -37.54847901129476 86.31617504700966 0
C -35.392407160541005 87.51666162976045 0
C -33.23695459321652 88.72027798956677 0
C -31.082422169880513 89.92702313954021 0
C -28.928455974943077 91.13650248094707 0
C -26.775373246184103 92.3485178913718 0
C -24.62293132720818 93.5627251515832 0
C -22.471415291125453 94.77885653399092 0
C -20.320473043688217 95.99672004121398 0
C -18.170348802590816 97.21596842055187 0
C -16.0207493731088 98.43648120905385 0
C -13.871653983101927 99.65791765573732 0
C -11.723048694463655 100.88021757898835 0
C -44.04862403293083 80.28554436263443 0
C -41.893787029399014 81.47708891693732 0
C -39.73837687808004 82.67074113633961 0
C -37.58272709400631 83.86718908539487 0
C -35.42755672864005 85.06670151664039 0
C -33.27272619345347 86.26925560339872 0
C -31.118468945454797 87.4747978233696 0
C -28.964841514671694 88.68312430537785 0
C -26.812257512320663 89.89414602900024 0
C -24.66000154472868 91.1072575768439 0
C -22.508492044093288 92.32253151953154 0
C -20.35783581322876 93.53957344190084 0
C -18.2076085228041 94.7581945445334 0
C -16.057949634055014 95.97806097272543 0
C -13.908674352318675 97.19910167635767 0
C -11.75988927324549 98.42098559218843 0
C -9.61141902658103 99.64361123478069 0
C -7.46330233582629 100.86676121135268 0
C -44.076421232856084 77.83781435105128 0
C -41.922917293084474 79.02947956281382 0
C -39.76853997693677 80.2229937894286 0
C -37.614110060563206 81.41892118467635 0
C -35.45961189554267 82.61757636582298 0
C -33.30545541589083 83.81913108078507 0
C -31.15170543621134 85.02354699200019 0
C -28.998768724750978 86.23079480212529 0
C -26.846574096735075 87.44065300513819 0
C -24.694679388852926 88.6527670469236 0
C -22.54375711613703 89.8670879189441 0
C -20.393293306192035 91.0833125195352 0
C -18.243328918549288 92.30110548828259 0
C -16.093877654103622 93.52042376791599 0
C -13.94477612809762 94.74082022206507 0
C -11.795964164185582 95.96227164165201 0
C -9.64763794312889 97.18451613540712 0
C -7.499439662336121 98.40741184869263 0
C -5.351472122663685 99.63077052809582 0
C -3.203654478845882 100.85446356646295 0
C -41.94925452085579 76.58215635110915 0
C -39.79615676919987 77.77565188378978 0
C -37.642532457063055 78.97120705383523 0
C -35.48891013139501 80.16917779671819 0
C -33.33536850170278 81.36979063023708 0
C -31.18248886314138 82.57321319734008 0
C -29.03007681040251 83.77932208045318 0
C -26.878399912759374 84.98810058684295 0
C -24.727269216377913 86.19920761284811 0
C -22.576626478405906 87.41250457164305 0
C -20.42657388523004 88.62774645054841 0
C -18.27702222683275 89.84479957196186 0
C -16.128027285086937 91.06329366130171 0
C -13.979204198489446 92.28311951922832 0
C -11.83094784748686 93.50400988117134 0
C -9.682850757337404 94.72584729744449 0
C -7.534907089422061 95.94835948045156 0
C -5.387100595914985 97.17147479160961 0
C -3.239413478868888 98.39498961127951 0
C -1.0917284739532296 99.61876384926963 0
C 1.0559483586564111 100.84265356887032 0
C -41.97320569670732 74.13476290613906 0
C -39.82110006135992 75.32856108802257 0
C -37.66853348264431 76.523940827688 0
C -35.51556368271708 77.72130725162899 0
C -33.363081684470295 78.92122804496957 0
C -31.210660598952437 80.12358240288994 0
C -29.058839350041843 81.32860470666826 0
C -26.90771546698713 82.53627672075288 0
C -24.75712716213853 83.74634136563404 0
C -22.60704787245818 84.95860352108058 0
C -20.457751308891858 86.17304228343085 0
C -18.308738866598027 87.38910621918245 0
C -16.160270051629332 88.60688936430833 0
C -14.012067309777983 89.8259202525338 0
C -11.864207465445672 91.04625647215717 0
C -9.716589605841369 92.2675035001677 0
C -7.569071781594152 93.48962749136646 0
C -5.421732344398178 94.71237901226405 0
C -3.274361252375682 95.93563312443123 0
C -1.1270695579555983 97.15923681899802 0
C 1.0203115718110947 98.38304219357359 0
C 3.1678029854234167 99.60690694829334 0
C 5.3154738590984705 100.83068342841244 0
C -39.84391760664361 72.88156157899144 0
C -37.69220879074569 74.07695903236643 0
C -35.54019802433074 75.2738988131228 0
C -33.3881955946481 76.47303673354114 0
C -31.23653439842187 77.67454578464772 0
C -29.085419908989294 78.87868690481878 0
C -26.934743225612955 80.08521789369306 0
C -24.784733111291537 81.29423304749787 0
C -22.63538840037696 82.50556008313785 0
C -20.486459510537934 83.7188225634543 0
C -18.338146661188595 84.93408296317584 0
C -16.19023298082798 86.15089985986548 0
C -14.042699412730002 87.3692801060095 0
C -11.895516476879855 88.58884272319303 0
C -9.748449788372957 89.80957257668845 0
C -7.601685219439168 91.03115494635074 0
C -5.454844206461109 92.25349345252141 0
C -3.308209478919414 93.47641367879993 0
C -1.1614481962975327 94.69976414814191 0
C 0.9853593763215707 95.92340173347874 0
C 3.132373547476464 97.14717807980924 0
C 5.279608001613606 98.370945221711 0
C 7.427081026012703 99.59456380733637 0
C 9.574900805691346 100.81787752556838 0
C -39.86473511649367 70.43457408068228 0
C -37.71394221093307 71.62997648212666 0
C -35.56277434719619 72.8268461825351 0
C -33.411403880487924 74.02531755788772 0
C -31.2603442515955 75.22612075390127 0
C -29.109695672378578 76.4292326409562 0
C -26.959498820149417 77.63475102100173 0
C -24.810034864001526 78.84270708572349 0
C -22.66115861635856 80.05289933634593 0
C -20.512818290493907 81.26520310398614 0
C -18.365211895822274 82.47947634017666 0
C -16.217991041785396 83.69551435805656 0
C -14.071183791282323 84.91300278971235 0
C -11.924602730219092 86.13191417321833 0
C -9.778436815245662 87.35193620746041 0
C -7.632216955729226 88.57296511668643 0
C -5.486407794126513 89.79482080486447 0
C -3.340377894282517 91.01732861189568 0
C -1.1944589501032876 92.24034591737696 0
C 0.9516622201285277 93.4637281320085 0
C 3.0979243710761275 94.6873221009439 0
C 5.244457694815483 95.91098849313623 0
C 7.39127150720267 97.13460083497571 0
C 9.538472797637095 98.35800517541234 0
C 11.68609442190876 99.58104703237109 0
C 13.834172778154855 100.80359743114141 0
C -37.733918520304876 69.18310389304264 0
C -35.583457359146166 70.37978408035615 0
C -33.43276856419299 71.57799279071045 0
C -31.28229370564353 72.77811071748256 0
C -29.132120094380785 73.98040357800546 0
C -26.982421748379423 75.18489382755496 0
C -24.833510969221418 76.39185723441524 0
C -22.68498964414183 77.6008946719851 0
C -20.5374285258689 78.81226299114425 0
C -18.390224748530127 80.0255077726627 0
C -16.243597115120295 81.24052446897115 0
C -14.097404108674716 82.45723071381029 0
C -11.95170369766955 83.67530021888143 0
C -9.806084034519877 84.8946381326921 0
C -7.660965036849524 86.11503482012378 0
C -5.515760595262605 87.33633860329812 0
C -3.370723769580826 88.55835168176313 0
C -1.2256277522113648 89.78098193211365 0
C 0.9195779618910594 91.0040073754095 0
C 3.064941423218963 92.2273459102585 0
C 5.210617598727817 93.4508269878099 0
C 7.356491883529283 94.67434572792841 0
C 9.50288695121293 95.89773118396828 0
C 11.649605109911217 97.12086869676537 0
C 13.796926797505915 98.34357123681751 0
C 15.944775344007198 99.56568206803432 0
C 18.093354926632504 100.7869628530934 0
C -37.75252409770232 66.73623320572116 0
C -35.602638899825294 67.93297069535517 0
C -33.45255217886309 69.13087882103792 0
C -31.302439299784158 70.33038739178969 0
C -29.15277796279078 71.53187401582254 0
C -27.003526008544714 72.73549385184678 0
C -24.855031394854766 73.94142157624836 0
C -22.707058583143372 75.14946692705769 0
C -20.55980917571915 76.35970951955478 0
C -18.413183582874172 77.57193201040171 0
C -16.267142738408786 78.78605980651781 0
C -14.121715103193193 80.00183033424827 0
C -11.976496759948581 81.21906973434211 0
C -9.831926651132434 82.437640438265 0
C -7.68738285163603 83.65736833250514 0
C -5.543215716964737 84.8780312991473 0
C -3.399006978942821 86.0995313221878 0
C -1.2549051955862456 87.32164763226727 0
C 0.8894713815488103 88.54425511467245 0
C 3.033778507016203 89.7672580689483 0
C 5.178296860096113 90.9905040861053 0
C 7.323292271631738 92.21381215136734 0
C 9.468493460437353 93.43710600481933 0
C 11.614226210063963 94.66021270187237 0
C 13.760438917845864 95.88295257492166 0
C 15.907310526665984 97.10518568480603 0
C 18.054784029831968 98.32678282355013 0
C 20.203118877068032 99.54747497455536 0
C 22.35225553928246 100.76715677397067 0
C -35.6205465682977 65.48620949825072 0
C -33.4709000818334 66.68394582601996 0
C -31.321357512174412 67.88302686663481 0
C -29.17198406090083 69.08378760444663 0
C -27.023214883242307 70.28658089638753 0
C -24.8749298623172 71.49144042546273 0
C -22.727392139934448 72.6984908761632 0
C -20.580560882192305 73.9076907597287 0
C -18.434470886548873 75.11896334771461 0
C -16.28892222519934 76.33200275399578 0
C -14.144038236912156 77.54688436043398 0
C -11.999581772459294 78.76319490550756 0
C -9.855571089005132 79.98099138509825 0
C -7.711911738508469 81.19989796713226 0
C -5.5684194692463 82.41992410141883 0
C -3.425203753303662 83.64076384268394 0
C -1.2818827112434468 84.86234023520144 0
C 0.8612404968034125 86.08450060980275 0
C 3.004583782039249 87.30709356226343 0
C 5.147989000355574 88.52999755462429 0
C 7.291763075878118 89.75305132385627 0
C 9.435833234815762 90.97613568585518 0
C 11.580311833568432 92.19907921423463 0
C 13.725295950246428 93.42176908614613 0
C 15.870893044286635 94.6440563827092 0
C 18.01717690117865 95.86576372233993 0
C 20.164190093901944 97.08675927677774 0
C 22.312183567320044 98.30674733052443 0
C 24.46105144549713 99.52563252649118 0
C 26.611073059563875 100.74293159664761 0
C -35.637301706311156 63.03944201882354 0
C -33.48822460992323 64.23715279158833 0
C -31.33897635839449 65.43585797476963 0
C -29.190046989523534 66.63605438852693 0
C -27.041459570705385 67.83799658988414 0
C -24.893512304369892 69.04192225241793 0
C -22.746198774221927 70.2479372611622 0
C -20.59969454588159 71.45607962612416 0
C -18.453986250563624 72.6662815341387 0
C -16.3089390296771 73.87838512740738 0
C -14.164507876314595 75.0921836820705 0
C -12.020636268282967 76.30766131374573 0
C -9.877299104852359 77.52451288969549 0
C -7.734292236812266 78.7426945955711 0
C -5.591727458311603 79.96192754631939 0
C -3.4491993390086573 81.18212431850331 0
C -1.3070479410473574 82.40310803408727 0
C 0.8352240984152114 83.62473400680447 0
C 2.9774300243635508 84.84684609499507 0
C 5.119757753136819 86.06934292392451 0
C 7.2623006001870625 87.29203924461592 0
C 9.405169792804868 88.51479749800971 0
C 11.548355717606173 89.73752865939889 0
C 13.691922059814102 90.96008293047146 0
C 15.836125680921542 92.18229994733763 0
C 17.98093511639154 93.40404680837162 0
C 20.126581903432204 94.62512282888616 0
C 22.272950804606648 95.84539794347663 0
C 24.42040924370962 97.06447830274756 0
C 26.56881000490623 98.28233313580031 0
C 28.71849592646219 99.4985425921788 0
C 30.869465404414765 100.71291419557602 0
C -33.50452488899399 61.790413961000105 0
C -31.3556920283886 62.988878528439244 0
C -29.206981811348943 64.18857963221814 0
C -27.05864453280033 65.38976109403859 0
C -24.910846686234134 66.59280004184912 0
C -22.763893235686538 67.79790908755628 0
C -20.61751090970995 69.00489326155135 0
C -18.472121510628 70.21406554689948 0
C -16.327413750910594 71.42507734868299 0
C -14.183371904157921 72.63790274501085 0
C -12.040013019518323 73.85235443603835 0
C -9.897196107360493 75.06835751436037 0
C -7.754968705285645 76.28564527246209 0
C -5.612950821902054 77.50411873383244 0
C -3.4714945177121446 78.72360352486099 0
C -1.3301514650958874 79.94397600663791 0
C 0.8111195219788535 81.16496320707272 0
C 2.9523598837300193 82.38655515364337 0
C 5.093539006364623 83.60853862038311 0
C 7.234923338595207 84.83079209847912 0
C 9.376449768903802 86.05320002144407 0
C 11.518397406167368 87.27560582559404 0
C 13.660585052027349 88.4979272480459 0
C 15.80332368342122 89.71997972048527 0
C 17.946644154310494 90.94162824075615 0
C 20.090579182279157 92.16270463807871 0
C 22.235371947400257 93.3829487308962 0
C 24.38096158355109 94.60229045047447 0
C 26.52773614253848 95.82037458152311 0
C 28.67556121429145 97.03711094984982 0
C 30.82481425631635 98.25203792357841 0
C 32.975450192582876 99.46494244716918 0
C 35.12775069476185 100.67534576600133 0
C -33.52005303811573 59.343608299753676 0
C -31.371518487114486 60.54201787165683 0
C -29.22306017801319 61.7412851245498 0
C -27.074853110962803 62.94184369959451 0
C -24.92731429018181 64.14410314052071 0
C -22.78042641419485 65.34820699667135 0
C -20.63421160410211 66.55412704347314 0
C -18.488954775960423 67.76216607621308 0
C -16.344485534255117 68.97211705506406 0
C -14.200831625924918 70.18389827496922 0
C -12.057870433030763 71.39739904753502 0
C -9.91563116247125 72.61242454833925 0
C -7.773804675663314 73.82882651816541 0
C -5.632676277102391 75.04647251837032 0
C -3.4918403039572183 76.26523880133497 0
C -1.35127246624679 77.48480572488516 0
C 0.7891057752751186 78.70520383587495 0
C 2.929296274145913 79.9261457850926 0
C 5.069452537441866 81.14758829309828 0
C 7.209637034060823 82.36934870991007 0
C 9.349979304932008 83.59131875049167 0
C 11.490547383581928 84.81335726191647 0
C 13.631434298322295 86.0353353957913 0
C 15.772682090491047 87.25713369846429 0
C 17.914368155000524 88.4785570898057 0
C 20.056687371762898 89.69944322861431 0
C 22.199652149661603 90.91967685165787 0
C 24.343620651150328 92.13901985164225 0
C 26.488253784978827 93.35733643011311 0
C 28.63424058713892 94.5742839278105 0
C 30.781286929348372 95.7896977698357 0
C 32.92989709312698 97.00310581904493 0
C 35.07994013278203 98.2141891735924 0
C 37.23181069927218 99.42246068274382 0
C 39.3855439228815 100.62758586023419 0
C -31.386711896575612 58.09520891940363 0
C -29.238434371396096 59.29423331972654 0
C -27.09038862551918 60.494201940960934 0
C -24.942827383061896 61.69562374618643 0
C -22.796005519927643 62.89875109159791 0
C -20.65005165847855 64.10384762251043 0
C -18.50481453272416 65.3107107868309 0
C -16.360523696698273 66.51956532655038 0
C -14.217162919239895 67.73033702581111 0
C -12.074509345156281 68.94272836679613 0
C -9.932664499111768 70.1568286212633 0
C -7.791376362347958 71.37223629393732 0
C -5.6507054115581035 72.58904664477903 0
C -3.5104915365997407 73.80687212223683 0
C -1.370634922579434 75.02575896759633 0
C 0.7688434696951918 76.24537256267904 0
C 2.9081320908056516 77.4657053448703 0
C 5.047293273154403 78.68651130818829 0
C 7.186409188241801 79.90773510007732 0
C 9.325690587313082 81.12917273484577 0
C 11.464889599344202 82.35078400937668 0
C 13.604441985508787 83.57236704517851 0
C 15.744247780593144 84.79375916150816 0
C 17.884446713026254 86.01485320728099 0
C 20.025041179939915 87.23551426981946 0
C 22.166404425990727 88.4555680083644 0
C 24.30820542750927 89.67486566271045 0
C 26.451064368910224 90.8931435501028 0
C 28.594794127355186 92.11028339419016 0
C 30.739778400119068 93.32582509773111 0
C 32.8859016897072 94.53959176118481 0
C 35.033654268715296 95.75118232546575 0
C 37.182953595983435 96.96020201434924 0
C 39.334213712269914 98.16628652781725 0
C 41.487511220547006 99.36887508644585 0
C 43.64307592209844 100.56729300003272 0
C -31.40140663652027 55.648461113448604 0
C -29.253273497149806 56.847247021901865 0
C -27.10529567476981 58.046785256694115 0
C -24.957817839356128 59.24751192991421 0
C -22.811034089504673 60.44983587320311 0
C -20.664961268531393 61.65376297664746 0
C -18.51984926910033 62.85964955864268 0
C -16.375622379188357 64.06737177938763 0
C -14.232386627306271 65.27700563148667 0
C -12.089896002991994 66.48831380924678 0
C -9.948394164008599 67.70135622183311 0
C -7.807450240700722 68.91582837356769 0
C -5.667301921532126 70.13165933085213 0
C -3.5276337776302005 71.3487003106241 0
C -1.3885127596214668 72.56667986615942 0
C 0.7502421912174171 73.78560718937825 0
C 2.888757021960768 75.0051503608064 0
C 5.02708920694321 76.22531938474224 0
C 7.165185225021916 77.44591781906817 0
C 9.30321317541833 78.66684745570025 0
C 11.441355531602282 79.88791518701657 0
C 13.579554600648352 81.10896802502764 0
C 15.718013676530253 82.32991826725815 0
C 17.85662687627693 83.55064052968471 0
C 19.995688133928397 84.7709703521945 0
C 22.135218268336217 85.99076458860176 0
C 24.2754076292941 87.20983927570731 0
C 26.416174997442408 88.42805140092038 0
C 28.557927705208517 89.64502562993468 0
C 30.70047290409184 90.86064240577281 0
C 32.84433702845834 92.07452129084807 0
C 34.98943021310137 93.28650015516472 0
C 37.13616213317359 94.49600629498136 0
C 39.284653077675145 95.70288813435565 0
C 41.435126848526316 96.90630787831203 0
C 43.58782043799125 98.10584506611241 0
C 45.74277209384448 99.30096819303597 0
C 47.90028262467176 100.49105423792535 0
C -29.26773929835592 54.40039471205867 0
C -27.11984945975934 55.59958384742282 0
C -24.972350403790205 56.79973555442708 0
C -22.825436293945007 58.00111038813206 0
C -20.67936787103468 59.20416041884772 0
C -18.53423189051138 60.40896148072381 0
C -16.389939513822338 61.615500363013645 0
C -14.246805225038036 62.82405763834435 0
C -12.104464113788625 64.0342389898534 0
C -9.963117615500638 65.24621673444476 0
C -7.822546397806819 66.45965007858497 0
C -5.682716059273884 67.67452583158043 0
C -3.5435577377245417 68.89054797365368 0
C -1.4049917315550933 70.10775556729826 0
C 0.7331639361402897 71.3257564658944 0
C 2.8709977084733254 72.54458814570368 0
C 5.008352839392998 73.76405136619971 0
C 7.145621263858495 74.9839970492531 0
C 9.282664041676057 76.20427088403632 0
C 11.419735052435582 77.42470221963075 0
C 13.556736193471279 78.64521886747741 0
C 15.693865557429204 79.86567249260152 0
C 17.83120426641497 81.08593752134702 0
C 19.968640955992115 82.30587337923616 0
C 22.10667674453137 83.52531270183565 0
C 24.244969060355064 84.74411022919138 0
C 26.383994654355977 85.9619628241424 0
C 28.523492961573186 87.17878264909834 0
C 30.663998090221988 88.39425517406347 0
C 32.805432724783635 89.6082772403582 0
C 34.94815944969682 90.82037561422939 0
C 37.092081200129655 92.03031140231408 0
C 39.237670494201915 93.23752128456422 0
C 41.38507249034445 94.44163633333774 0
C 43.534578610844044 95.64195524944452 0
C 45.68647270091007 96.83802541933903 0
C 47.84089880900878 98.02956215849711 0
C 49.998047753414255 99.21607927938203 0
C 52.15761869698278 100.39728275983556 0
C -29.282016262843566 51.953609783791826 0
C -27.134102657625352 53.15254146291239 0
C -24.986519808121667 54.35210239148724 0
C -22.83950961051843 55.55275861100418 0
C -20.693339799468635 56.7548575627996 0
C -18.547985689750906 57.958517187595284 0
C -16.403712510445107 59.16401788083041 0
C -14.260543124114387 60.371421770755084 0
C -12.11821586221061 61.580449445570224 0
C -9.976981940776819 62.79127750708982 0
C -7.836607992672009 64.00365783122206 0
C -5.697108466017387 65.21745077896742 0
C -3.5582536027836094 66.43253512416929 0
C -1.4201851978071403 67.64875439372624 0
C 0.7174608500036253 68.86596223386293 0
C 2.854500590603248 70.08397683132276 0
C 4.991237450613138 71.30269650195434 0
C 7.127586884369375 72.52189114511368 0
C 9.263760810880044 73.74145463023126 0
C 11.39973280276709 74.96125766717292 0
C 13.535673588086093 76.18117573324868 0
C 15.671703327622902 77.40106140978223 0
C 17.807670914061276 78.62081354430889 0
C 19.9438355040352 79.84027103793926 0
C 22.080238505451124 81.0592758481404 0
C 24.216979001541183 82.27758166380512 0
C 26.354105753539464 83.49511145684865 0
C 28.491831283682433 84.71161641803006 0
C 30.630206327705224 85.92698745606556 0
C 32.76958012858244 87.14086153260251 0
C 34.90964275493886 88.35300191088015 0
C 37.0511085091302 89.56304249298188 0
C 39.19376027711205 90.77051403470735 0
C 41.33827100603196 91.9750980094464 0
C 43.48453943271889 93.17618958470395 0
C 45.63302102123522 94.37324640815125 0
C 47.78419777654692 95.56610588560277 0
C 49.93790790767535 96.75374243825001 0
C 52.09470071534622 97.93645761754158 0
C 54.253977588855875 99.11444980705546 0
C 56.41559034777134 100.2883462991699 0
C -27.148250859158946 50.70561062268331 0
C -25.000557950985225 51.90474495216367 0
C -22.853399247678098 53.104683336566175 0
C -20.706973461411724 54.30583967584837 0
C -18.56155032361133 55.50856338120476 0
C -16.4171411625459 56.71298478608342 0
C -14.27372541021006 57.91907631336502 0
C -12.131421766472625 59.126988089517276 0
C -9.99018589408781 60.33661556410749 0
C -7.849927437751058 61.54782289089954 0
C -5.7107018015780024 62.76065922794588 0
C -3.5721507582865946 63.974648200349726 0
C -1.4344113643100451 65.18995617943072 0
C 0.7027267370129906 66.40617295112571 0
C 2.8392945215063814 67.62337286311127 0
C 4.975341114048707 68.8411914809048 0
C 7.110992022687174 70.05962232839248 0
C 9.246317565110818 71.2784361520131 0
C 11.381416903124325 72.49756281465062 0
C 13.516440548131484 73.71680897403276 0
C 15.651275585655986 74.93611017768755 0
C 17.786122436867192 76.15529055139972 0
C 19.920977127982063 77.37418363017798 0
C 22.05603546164165 78.5926082041338 0
C 24.191233288905384 79.8104665240755 0
C 26.326727107764373 81.02756419258866 0
C 28.46269707800641 82.24377979529268 0
C 30.599338054323535 83.45884182435942 0
C 32.736351157531445 84.67253456379224 0
C 34.874411071854695 85.88455691602528 0
C 37.01322221184429 87.0945029904329 0
C 39.15340638621786 88.30208943257018 0
C 41.294892890153434 89.50699068721492 0
C 43.43826691058051 90.70878295427674 0
C 45.58354693224451 91.90684827204716 0
C 47.73109449505359 93.1006131645289 0
C 49.88146364633908 94.28977318016108 0
C 52.03468409395704 95.47404731754006 0
C 54.19114367922847 96.65323664872103 0
C 56.350312358848285 97.82874871238322 0
C 58.51197771090419 99.00144430479807 0
C -27.162446985747867 48.25878541183988 0
C -25.014596898006975 49.457557771793375 0
C -22.867215905647836 50.656886473729244 0
C -20.720572387434117 51.85720716014412 0
C -18.574894223394626 53.05895266751494 0
C -16.43016857987846 54.26214050599932 0
C -14.286595174690289 55.467092117742325 0
C -12.144186594250614 56.67378358732721 0
C -10.002873982690579 57.88217397180896 0
C -7.862754883955828 59.092350780938524 0
C -5.723466090877542 60.30386234487674 0
C -3.5852126406807208 61.516921291707334 0
C -1.4477067443061469 62.73109202888068 0
C 0.6890393550473481 63.94644731905825 0
C 2.8250846327358543 65.16261448963844 0
C 4.960642311078927 66.37958905074791 0
C 7.095588710364336 67.59717717117387 0
C 9.23029392786669 68.81522028473076 0
C 11.364516677492059 70.03362193739457 0
C 13.498614932868083 71.25219552574936 0
C 15.632483180658511 72.47083251260894 0
C 17.76622634995112 73.68934531858693 0
C 19.899905557456457 74.90759611344052 0
C 22.033668708531824 76.12546746025288 0
C 24.16765165790502 77.34282404830061 0
C 26.30161227016625 78.55947309459779 0
C 28.436110639776988 79.77527289405072 0
C 30.57076071308509 80.98999465055203 0
C 32.7061285195113 82.20337038430236 0
C 34.84197581105795 83.41513641944627 0
C 36.97874443354822 84.62496338716375 0
C 39.11643403831831 85.83270824042432 0
C 41.25540399467542 87.03779058957014 0
C 43.39586710160122 88.24005810992195 0
C 45.53809821391499 89.43878033695205 0
C 47.682519129023895 90.63372257328312 0
C 49.829405828747724 91.82416286661957 0
C 51.979275235501156 93.0098535252989 0
C 54.13226481286548 94.19126358891359 0
C 56.28863415772327 95.36824804436627 0
C 58.44781898664765 96.54248044040874 0
C 60.60940834529557 97.71512473546147 0
C -25.028798793858805 47.010560560246255 0
C -22.88114741387073 48.2093403472898 0
C -20.734232133055265 49.40894308187049 0
C -18.588128559263247 50.60957044119189 0
C -16.443145774071148 51.81171707599604 0
C -14.299320433389308 53.01544099959167 0
C -12.156734442114699 54.22094001278285 0
C -10.01532301387183 55.428139604555746 0
C -7.875030125058087 56.63696666451975 0
C -5.735761470311802 57.847333992722106 0
C -3.5976375874457407 59.05923496660211 0
C -1.4603413578118398 60.272393333139135 0
C 0.6760742737713901 61.48660526108108 0
C 2.8117113312973663 62.701901460079526 0
C 4.946773070957078 63.9178894954714 0
C 7.081306314938312 65.134607642817 0
C 9.215251793691742 66.35183966393724 0
C 11.348810526209572 67.56948113463619 0
C 13.482088503514692 68.78731227805073 0
C 15.615066956780648 70.00518982640875 0
C 17.74780835841152 71.22300228155378 0
C 19.880503415544094 72.44061218121605 0
C 22.013210821269006 73.65789934649894 0
C 24.14576736374633 74.87469676350817 0
C 26.27856539936182 76.09085547142313 0
C 28.411495523213773 77.30620656859247 0
C 30.544767021387244 78.52047627154556 0
C 32.67830145835617 79.73348609422683 0
C 34.812592317247564 80.94502757912261 0
C 36.94723252992263 82.15478412033748 0
C 39.08302462134774 83.36257477850644 0
C 41.21962940115586 84.56796398737352 0
C 43.35756384557192 85.77047343479724 0
C 45.49711418197243 86.96997699080369 0
C 47.638681519107564 88.16579738187573 0
C 49.78253070176399 89.35757145529583 0
C 51.92900304170299 90.54504395628521 0
C 54.078756867640024 91.72816890471996 0
C 56.23178647221512 92.90755723508622 0
C 58.388290560213456 94.0833606056717 0
C 60.54752936424236 95.25742044354524 0
C -25.043248435498004 44.56364562514466 0
C -22.89534160116311 45.76204723935165 0
C -20.747997616551555 46.960856043222364 0
C -18.601577550404503 48.160623560202076 0
C -16.456231474433814 49.361651033657616 0
C -14.312001076848677 50.56412323301186 0
C -12.169090853698481 51.768324753176415 0
C -10.027492461281193 52.97430066746489 0
C -7.887038272419132 54.181862170931495 0
C -5.747749329142886 55.391010718899665 0
C -3.6096153926529997 56.6017097665764 0
C -1.4724686037264385 57.81363672445586 0
C 0.6637468974257089 59.02682942411522 0
C 2.7990836487172204 60.24102944655332 0
C 4.9336902263860685 61.45618057285649 0
C 7.067732176414601 62.671923463208664 0
C 9.2011769141617 63.888324871425816 0
C 11.334147346548281 65.10508981963768 0
C 13.466708668008359 66.32207977978112 0
C 15.598880559572248 67.53919727170226 0
C 17.73077345110194 68.75631586952144 0
C 19.86251079057038 69.97327343357463 0
C 21.994116724522208 71.18993248544984 0
C 24.12571459513573 72.40615934564919 0
C 26.257296078049237 73.62179578772334 0
C 28.388979401258354 74.83658459715981 0
C 30.5208099861323 76.05040818251219 0
C 32.65294822751577 77.26301689119116 0
C 34.785495509137874 78.47435005085539 0