ITEM: TIMESTEP
0
ITEM: NUMBER OF ATOMS
9076
ITEM: BOX BOUNDS xy xz yz pp pp pp 
0.000 175.735 58.578 
0.000 101.460 0.000 
-20.000 20.000 0.000 
ITEM: ATOMS type x y z
C 58.51197771090419 99.00144430479807 0
C 60.67451384478205 100.17342711758053 0
C 62.83719142488851 101.346904356667 0
C 56.28863415772327 95.36824804436627 0
C 58.44781898664765 96.54248044040874 0
C 60.60940834529557 97.71512473546147 0
C 62.77201736049979 98.88841953654835 0
C 64.93473774265546 100.06447358300647 0
C 67.09643541954121 101.24462470097873 0
C 54.078756867640024 91.72816890471996 0
C 56.23178647221512 92.90755723508622 0
C 58.388290560213456 94.0833606056717 0
C 60.54752936424236 95.25742044354524 0
C 62.70924004757911 96.43143651947427 0
C 64.87182938606328 97.60737139746892 0
C 67.03456234228035 98.78677942736914 0
C 69.19601628028427 99.97075453179535 0
C 71.35563788788303 101.15988961742019 0
C 51.88411591024113 88.07941168270428 0
C 54.03074658740858 89.26484442269818 0
C 56.18077499843736 90.44621437247754 0
C 58.33396570309312 91.62431603724644 0
C 60.491004171666255 92.80023363866681 0
C 62.65045047323916 93.9755402117759 0
C 64.81201436774649 95.15198819407806 0
C 66.97440522522933 96.33104529537333 0
C 69.13675249042433 97.51412143415983 0
C 71.29783874540344 98.70186263276356 0
C 73.45743266242204 99.8944386380629 0
C 75.61516385633712 101.09173209568742 0
C 49.70305520261695 84.42255504182731 0
C 51.84427257033724 85.61364239391375 0
C 53.98823788921385 86.80093655608765 0
C 56.13519858739933 87.98464074526285 0
C 58.285930903494005 89.1651866569429 0
C 60.43977909770994 90.34339592484945 0
C 62.59726544872598 91.52036381513479 0
C 64.7566824539023 92.69769922761454 0
C 66.91799465487055 93.87707066732246 0
C 69.07991091779537 95.05955610301241 0
C 71.24155704052069 96.24636576580266 0
C 73.40231569605965 97.43779128197178 0
C 75.56151820774188 98.63391123075682 0
C 77.71905052288919 99.83419159826511 0
C 79.87489725845167 101.0382140760057 0
C 47.53291372877299 80.75900635839342 0
C 49.669856489325205 81.95476167024752 0
C 51.80900222098848 83.14755113944258 0
C 53.95064743397648 84.33691201919662 0
C 56.095326408218334 85.52284869883043 0
C 58.24322801960322 86.70607900376855 0
C 60.394535898685014 87.88648068012172 0
C 62.54906678206966 89.065642496417 0
C 64.70674479120964 90.24434044989712 0
C 66.86614284757323 91.42425806455036 0
C 69.0271031404462 92.6067992257157 0
C 71.18837328228952 93.79302978183676 0
C 73.34924103098986 94.98357279944383 0
C 75.50922462949784 96.17828638527351 0
C 77.66784313992096 97.37729504462467 0
C 79.82517433203134 98.5800488546878 0
C 81.98059744551198 99.78644008430578 0
C 84.13448259739171 100.99588649292849 0
C 45.371220762201965 77.09017551174266 0
C 47.50504332464613 78.28999724765895 0
C 49.64040576817375 79.48715718840968 0
C 51.77783408991129 80.68144495770704 0
C 53.91769545204934 81.87287369989124 0
C 56.060215633262054 83.06131009273997 0
C 58.20587337208042 84.24682085067236 0
C 60.35451608510244 85.42980340675813 0
C 62.50667809335657 86.6110019537545 0
C 64.6616114289865 87.79154706778957 0
C 66.81935898813362 88.97257730001515 0
C 68.97865512561712 90.15554940190736 0
C 71.13925330865924 91.34140190339221 0
C 73.29952318687769 92.53101348511295 0
C 75.45931304589014 93.7247960803432 0
C 77.61865896849147 94.92230235786646 0
C 79.77633988435451 96.12399809477121 0
C 81.93292985340993 97.32912467063818 0
C 84.08809754091286 98.53756827008417 0
C 86.24191101507466 99.74880080128463 0
C 88.39430379210356 100.96239948642595 0
C 43.21598698676157 73.41725686569399 0
C 45.34739519992223 74.6201490851551 0
C 47.47999100854755 75.82104723968871 0
C 49.61422722598075 77.019507476053 0
C 51.750262329383396 78.21543939714194 0
C 53.88855759233311 79.40896500110479 0
C 56.029327403806796 80.59956580485546 0
C 58.172818785817086 81.78745722488812 0
C 60.31949808888858 82.97292506096669 0
C 62.46907293206741 84.1564957045481 0
C 64.62204047886009 85.33898877797485 0
C 66.77738360675103 86.52156857178721 0
C 68.93498911279808 87.70529808392949 0
C 71.09391818979093 88.89110520160962 0
C 73.25358458070602 90.08011004365758 0
C 75.4128093252454 91.2728416449339 0
C 77.57171211619776 92.46941364721908 0
C 79.72981934413629 93.6697151230213 0
C 81.88696687067058 94.87370210321635 0
C 84.04259977407312 96.08107394939012 0
C 86.19729710995672 97.2911732572217 0
C 88.3508112944147 98.50385143876092 0
C 90.5029658309664 99.71872079109875 0
C 92.65403187552845 100.93551216835205 0
C 41.06565456282636 69.74121093748542 0
C 43.19531013183967 70.94664616863359 0
C 45.32581044389143 72.15041624991042 0
C 47.457627902293105 73.35227639369619 0
C 49.590814916878536 74.55211465777788 0
C 51.72577245219605 75.74972192260802 0
C 53.86273202789087 76.94509761880231 0
C 56.00193957113654 78.13769087375607 0
C 58.14381615148236 79.32795711009769 0
C 60.28842808788594 80.51590858565935 0
C 62.43623210621144 81.70186387836108 0
C 64.58683341589635 82.88662072233986 0
C 66.74038036792719 84.07072870274101 0
C 68.89578206514626 85.25543523424649 0
C 71.05325226421414 86.44164395432489 0
C 73.21133004893196 87.63040303663192 0
C 75.36990379923783 88.82241638349728 0
C 77.52820982900741 90.017966728831 0
C 79.68617310502917 91.21720081773093 0
C 81.84314239746966 92.41997716569205 0
C 83.99920445019913 93.62601229602109 0
C 86.15422853190654 94.83503570609345 0
C 88.30805175881929 96.04671586087385 0
C 90.46088593854681 97.26075077262733 0
C 92.61279670415782 98.47669659595543 0
C 94.76377552324607 99.69449080242768 0
C 96.913883774778 100.91363560505704 0
C 38.9189915417731 66.0627532435273 0
C 41.04733936569605 67.2701362849599 0
C 43.17631364788097 68.47622555965995 0
C 45.306344968085185 69.68089341186236 0
C 47.43737600487998 70.88384770825738 0
C 49.56985509606523 72.0851292636551 0
C 51.70382640013386 73.28421659353631 0
C 53.83971665943719 74.48132125493171 0
C 55.97771608448426 75.67610163929703 0
C 58.11808881536589 76.86853058719187 0
C 60.26126036953276 78.05879602577957 0
C 62.407106497274235 79.24721592897771 0
C 64.55585874539973 80.43394508770862 0
C 66.70714599523178 81.6199630883378 0
C 68.86100069298247 82.80583542918207 0
C 71.01633567473436 83.99277241267869 0
C 73.17320117802065 85.18160872531656 0
C 75.3305092773349 86.3731999070728 0
C 77.488282856287 87.56792554329222 0
C 79.6452831521228 88.76620341022856 0
C 81.80191417248048 89.96779517079375 0
C 83.95800220496878 91.17249365973056 0
C 86.11289465861555 92.38037008818307 0
C 88.26690852152672 93.59098801447792 0
C 90.42007727034215 94.80397878896589 0
C 92.57233416486461 96.01921492914906 0
C 94.72384714328085 97.23615846209532 0
C 96.87454605660143 98.45475082018856 0
C 99.0244119222109 99.67459700151079 0
C 101.1736523045889 100.89558184686142 0
C 36.775045968812144 62.38251632020683 0
C 38.90243813923792 63.59138481465328 0
C 41.03031333547384 64.79930205428936 0
C 43.1589882492266 66.00610230639336 0
C 45.28843996489568 67.21163419478604 0
C 47.41900841155036 68.41561991215232 0
C 49.55078907780774 69.61819299755523 0
C 51.684095371816376 70.81894162586511 0
C 53.819080081624925 72.01769172228735 0
C 55.95608304878444 73.21442879557168 0
C 58.0953880705134 74.40904510230835 0
C 60.237084283391226 75.60172727300979 0
C 62.381419674434916 76.79216904523655 0
C 64.52829079424471 77.98119468543446 0
C 66.67791992015916 79.16895067106864 0
C 68.82962415909704 80.35634931670606 0
C 70.98353744637754 81.54413877989406 0
C 73.13872683902085 82.73340968206905 0
C 75.29508860876868 83.92478128874464 0
C 77.4514250449151 85.11898831327156 0
C 79.60781685792992 86.31631373428621 0
C 81.76403813646381 87.51662598064496 0
C 83.91940710292424 88.72031935894012 0
C 86.07404173059794 89.92700569183825 0
C 88.22795221450045 91.13647576531824 0
C 90.38101569800548 92.34854776816823 0
C 92.53346302562845 93.5627047879887 0
C 94.6851009871742 94.77889585459624 0
C 96.83587019328735 95.99672136516358 0
C 98.98604131013012 97.21604453325945 0
C 101.13569703301074 98.43646723158535 0
C 103.2847698907631 99.65796293281056 0
C 105.43339973790881 100.88022479193971 0
C 34.63301913429237 58.70100448655871 0
C 36.75974573530753 59.91093974112855 0
C 38.886848400792275 61.120219487085244 0
C 41.01452002134839 62.32864108123701 0
C 43.142821729641234 63.53622891845584 0
C 45.27201149089339 64.74270684481067 0
C 47.40212061197986 65.94787922149445 0
C 49.53347172777672 67.15163032094803 0
C 51.66615359017868 68.35381095114545 0
C 53.80052571271384 69.55427194884248 0
C 55.936747909212905 70.75296601848657 0
C 58.07502957305611 71.94960291929968 0
C 60.21554905895351 73.14435432183537 0
C 62.35843541198908 74.33704123243959 0
C 64.50387490771904 75.52802389367433 0
C 66.65165805749722 76.71776725250758 0
C 68.80190708218747 77.90665503260244 0
C 70.95403142770392 79.09570751195737 0
C 73.10786615583831 80.28558175811442 0
C 75.26267200020013 81.47698870314886 0
C 77.4182518289811 82.6706651186252 0
C 79.57368680326564 83.86714183059306 0
C 81.72897599550114 85.06666962019813 0
C 83.88373855049122 86.26921369419676 0
C 86.03800218208842 87.47476964652733 0
C 88.19153912399497 88.68314849120098 0
C 90.34436759230846 89.89404688258685 0
C 92.49630686686686 91.10736675193854 0
C 94.64783104035017 92.32255073861576 0
C 96.7985648876506 93.53965454698603 0
C 98.94877852594826 94.7581843916209 0
C 101.09850612437036 95.97812352509064 0
C 103.24770938382812 97.1991055459736 0
C 105.39657673423281 98.42102209009563 0
C 107.54499407951333 99.64362874700592 0
C 109.69309943145714 100.86679599589485 0
C 32.49224333934318 55.01864947258376 0
C 34.61854853700781 56.22928755142597 0
C 36.74513086137024 57.43954106060477 0
C 38.87212661028553 58.64928095640248 0
C 40.99960310370027 59.85836271712561 0
C 43.1277596471184 61.06656568094529 0
C 45.256656051055465 62.27400826131599 0
C 47.38654964260262 63.48021815710643 0
C 49.517495558178595 64.68532065771907 0
C 51.64985484410518 65.88893240254703 0
C 53.78368615182964 67.09111257788219 0
C 55.91925234293591 68.29146274974931 0
C 58.056659388765944 69.49014902995009 0
C 60.19615745545093 70.68682675273902 0
C 62.3379103920203 71.88155958480864 0
C 64.48191316280533 73.07464429076143 0
C 66.62837714381315 74.2662283583755 0
C 68.77700032283327 75.45692369570375 0
C 70.92779206495202 76.64713183359905 0
C 73.07999417797252 77.83775668045507 0
C 75.23367926782187 79.0294182386862 0
C 77.38778606635016 80.22299887783402 0
C 79.5424114905609 81.4189062017765 0
C 81.696819225926 82.61752219363781 0
C 83.85096667330356 83.81915733699903 0
C 86.00448688357444 85.0236706046429 0
C 88.15768980139309 86.23078905199141 0
C 90.30986212497892 87.44070581922193 0
C 92.4615570754028 88.65284731782242 0
C 94.61275822138057 89.86712689217545 0
C 96.76311000179659 91.08330351960802 0
C 98.91308912833583 92.30118554240033 0
C 101.06258616253822 93.52039226785543 0
C 103.21175600748177 94.74086217086693 0
C 105.36039580293132 95.962285618616 0
C 107.50884907911657 97.18454776233266 0
C 109.65699508418938 98.40742755123868 0
C 111.80494119942605 99.63080256983281 0
C 113.95277996179776 100.8544876704638 0
C 30.352114854085805 51.335781343300624 0
C 32.478222527704965 52.54681751055285 0
C 34.604503089587666 53.75771972198891 0
C 36.73105944167101 54.968298893660496 0
C 38.85799017878842 56.17857500408491 0
C 40.98543503107094 57.388316024822714 0
C 43.11347468811161 58.59736626117528 0
C 45.2422967203387 59.80559800404358 0
C 47.37195868897439 61.01299511323882 0
C 49.50279436783751 62.219298303332174 0
C 51.63482032858252 63.4243507302854 0
C 53.76824369320329 64.6280903041324 0
C 55.90324223753511 65.83009756431889 0
C 58.03996540137866 67.03055048412477 0
C 60.17863030154076 68.22910032887836 0
C 62.319321220343085 69.42590971770977 0
C 64.46227131037197 70.62094966982016 0
C 66.6073936605756 71.814506400484 0
C 68.75474294524707 73.00675938682166 0
C 70.90394497300731 74.19841172746422 0
C 73.05501510817753 75.38988528972844 0
C 75.20715633284946 76.5820913644014 0
C 77.36031362968698 77.77567908960715 0
C 79.51385113396533 78.9711723677884 0
C 81.66751388380627 80.1692240815925 0
C 83.82087109168305 81.36988093293583 0
C 85.9738484078062 82.57330755658687 0
C 88.1264061114495 83.77932910708043 0
C 90.27800315527688 84.98813739663593 0
C 92.4292383042056 86.19923583036552 0
C 94.57979742690162 87.41250479377375 0
C 96.72987050958778 88.62781627883926 0
C 98.8793238918622 89.84480808781909 0
C 101.02833800029548 91.06339372108943 0
C 103.1770967475043 92.2831326954984 0
C 105.32556771468549 93.5040533756917 0
C 107.47359676858126 94.72584694049321 0
C 109.62153259556288 95.94839842444021 0
C 111.76933316833411 97.17149237550723 0
C 113.917036551496 98.39501441576957 0
C 116.06469649622132 99.6187902314646 0
C 118.21238257784896 100.84267678219678 0
C 28.212087441040474 47.652763109511326 0
C 30.338193834019215 48.86388666891033 0
C 32.46436824209827 50.07510630166963 0
C 34.59071407833116 51.28629130513573 0
C 36.717331771894045 52.4973368648968 0
C 38.844315136694654 53.7081254118812 0
C 40.97179035458768 54.91848733021622 0
C 43.099865204450076 56.12833529860082 0
C 45.22862551784131 57.337595054150064 0
C 47.358337967035645 58.546014738150575 0
C 49.48899871501643 59.75357331375085 0
C 51.620847678090925 60.95990771605701 0
C 53.75392553659739 62.165096031390526 0
C 55.88851460539945 63.368713441639194 0
C 58.02464969095282 64.57089174731651 0
C 60.16259461013036 65.77130497331906 0
C 62.30252765461663 66.96999577736828 0
C 64.44443594088698 68.16705835855934 0
C 66.5884874487397 69.36237592109829 0
C 68.73451443288006 70.55636246364558 0
C 70.88254917083069 71.74931855511467 0
C 73.03216357547907 72.94194355609775 0
C 75.18328806657455 74.13475433516416 0
C 77.33527305424458 75.32853036390631 0
C 79.48801684678048 76.52388506759992 0
C 81.64076479437095 77.7213211205456 0
C 83.79354194422483 78.92113188399152 0
C 85.94569909827891 80.12364763120004 0
C 88.09743454237567 81.32875874603576 0
C 90.24871590101435 82.53632688138637 0
C 92.39932383488832 83.74635011029154 0
C 94.54937615361793 84.95867500052225 0
C 96.69882918945015 86.17297388585843 0
C 98.8478534977428 87.38912694159704 0
C 100.99622604568336 88.60684773778607 0
C 103.14435419407108 89.8260071696737 0
C 105.29223155124997 91.04623921316781 0
C 107.43988928873122 92.26755237467165 0
C 109.58732436808731 93.48964151512178 0
C 111.73475438702701 94.71240677653127 0
C 113.88203177684132 95.9356597943686 0
C 116.0293210495857 97.15927066682748 0
C 118.17675629785771 98.38306573911697 0
C 120.32422730964218 99.60693133185251 0
C 122.47190839626474 100.83070668050419 0
C 26.071605626507544 43.96992914910378 0
C 28.197913115644933 45.18083571473244 0
C 30.32417707667889 46.392070504342314 0
C 32.45052079138398 47.6035161534274 0
C 34.57704047222614 48.815040345598185 0
C 36.703813923314904 50.02653483601034 0
C 38.83094425416441 51.237890658963366 0
C 40.95853275352192 52.44895998167207 0
C 43.08670303763719 53.659692751849505 0
C 45.21560976596859 54.869887046444795 0
C 47.34530054368744 56.07942775572352 0
C 49.47592416215436 57.288136691437735 0
C 51.60760881537007 58.49581050968817 0
C 53.74053532482552 59.70223782381263 0
C 55.87472630691652 60.907513565820636 0
C 58.01045697024417 62.111234120916535 0
C 60.147884054639775 63.31345879146735 0
C 62.287076485998284 64.51401285294463 0
C 64.42817639396597 65.71277207998462 0
C 66.57118933627098 66.9098971509453 0
C 68.71621289412933 68.10546258042258 0
C 70.86298753795451 69.29997422340821 0
C 73.01157017855358 70.49368490960798 0
C 75.16147214701773 71.68736334366639 0
C 77.3125476425833 72.88157276880843 0
C 79.46421887465583 74.07687769022593 0
C 81.61635462646205 75.27385618425765 0
C 83.76824584957133 76.4730216774862 0
C 85.91981475653778 77.67468562729702 0
C 88.07107691038084 78.87866724697243 0
C 90.22174675025614 80.08522526088785 0
C 92.371688059191 81.29429811008595 0
C 94.52125119377878 82.50546703830064 0
C 96.6701421453451 83.71881810488311 0
C 98.81839123258592 84.93403114485886 0
C 100.96636040436118 86.15092416529055 0
C 103.11372616550281 87.36926122679525 0
C 105.26097865131534 88.58890921218064 0
C 107.40792452119452 89.8095775537036 0
C 109.55484454002988 91.0311879616519 0
C 111.70150622676579 92.25352078774242 0
C 113.84816135849937 93.47646211314634 0
C 115.9949355786048 94.69979422172469 0
C 118.1418173667811 95.92342255375263 0
C 120.28882126275231 97.14720051430804 0
C 122.43602883421313 98.37096999667047 0
C 124.58351681849715 99.59458509463246 0
C 126.73130583460043 100.81791197379385 0
C 23.930097271244183 40.28762533302443 0
C 26.05683183286413 41.49801791087638 0
C 28.18339623107387 42.708967627229164 0
C 30.309943818542717 43.92036763986456 0
C 32.436527023976254 45.1320832412305 0
C 34.56328233894432 46.34400723217271 0
C 36.69033279841178 47.555990474775754 0
C 38.81768399742502 48.76794955994375 0
C 40.94550578239996 49.97979907942843 0
C 43.073923106300384 51.19132078151905 0
C 45.202949568564854 52.40249695425776 0
C 47.332725209077445 53.613061236414836 0
C 49.46338938955681 54.82286417303558 0
C 51.59506558647172 56.03170888931121 0
C 53.72777742731867 57.23963864556887 0
C 55.86179903917556 58.446284293864224 0
C 57.997258978757465 59.651603827153465 0
C 60.13417695195898 60.85552173218023 0
C 62.272793199749344 62.05770118022706 0
C 64.4131797760239 63.25814960322457 0
C 66.55535834451487 64.45697677184405 0
C 68.69934635878931 65.65427774214086 0
C 70.84518338057906 66.85020158017204 0
C 72.99264683156635 68.04526898628436 0
C 75.14164175928836 69.23982524592432 0
C 77.29166527860171 70.43452643569363 0
C 79.4426064228893 71.62992563041243 0
C 81.59373793145194 72.82675379794226 0
C 83.74509637555053 74.0253484111999 0
C 85.8961385778781 75.22608409062903 0
C 88.04677472964202 76.42927009837669 0
C 90.19691847904775 77.63479654495396 0
C 92.34647303796451 78.84269987946037 0
C 94.49517977275235 80.05302088601594 0
C 96.64346751800629 81.26529502607524 0
C 98.79133359043355 82.47950332688353 0
C 100.93846433203714 83.69549544480097 0
C 103.08531679728245 84.9130651598208 0
C 105.2317693603542 86.13191208778471 0
C 107.37813025952128 87.35197602543545 0
C 109.52407016467298 88.5729987476998 0
C 111.670155813482 89.79484153598423 0
C 113.81598664126554 91.01735556896966 0
C 115.96197336290102 92.24037958533468 0
C 118.10809301606844 93.46375044997771 0
C 120.25437721671979 94.68734253533002 0
C 122.40087152867935 95.91101632151987 0
C 124.5477295550231 97.13461886975004 0
C 126.6949297349526 98.35802188690793 0
C 128.84250400714578 99.5810791583678 0
C 130.99062744043576 100.80360000932727 0
C 21.786934881555243 36.6062383551313 0
C 23.914324025590556 37.81575356644759 0
C 26.041412261662614 39.026118402625116 0
C 28.168376349752492 40.23716473342762 0
C 30.295292447556864 41.448780131871914 0
C 32.42225372925328 42.66082319572849 0
C 34.549360618787475 43.87317310966823 0
C 36.67671600596885 45.0856985243107 0
C 38.804430722977884 46.29835297711894 0
C 40.932576371729134 47.510935233284705 0
C 43.06123808977534 48.723329080578694 0
C 45.190479890967666 49.93538210196192 0
C 47.32046271018754 51.14691927504461 0
C 49.45120979650937 52.35781109974776 0
C 51.582881271648894 53.56793067570003 0
C 53.71561844448082 54.777087678728414 0
C 55.84951684798951 55.98520788021024 0
C 57.984744881748895 57.19194897735302 0
C 60.121322947724686 58.39733764624072 0
C 62.259402032170414 59.60120049195664 0
C 64.39912864229336 60.803387708646724 0
C 66.5405923772093 62.00383828860689 0
C 68.68380740527999 63.20268379931909 0
C 70.82872643832741 64.40020862157944 0
C 72.9753353641068 65.59647793272595 0
C 75.12329543545947 66.7920613994163 0
C 77.27255146136888 67.98736673463667 0
C 79.42249909796232 69.18310589985086 0
C 81.57302188328474 70.37983583715103 0
C 83.72370064580758 71.57795318778936 0
C 85.87422689202593 72.77811542762434 0
C 88.0244065695645 73.98034033433132 0
C 90.174112796828 75.1848777683796 0
C 92.32309098421345 76.39178049024625 0
C 94.47131815521676 77.60101290731522 0
C 96.61919534135458 78.81222294951777 0
C 98.76624371985027 80.0254994613041 0
C 100.91284347008335 81.24060543237506 0
C 103.05897506001925 82.45724188132638 0
C 105.20485941300974 83.67534173237111 0
C 107.35021053619046 84.89466213930015 0
C 109.49560522788884 86.11506827851784 0
C 111.64059571119247 87.3363587521704 0
C 113.78568598136495 88.55840581757504 0
C 115.93079585685808 89.78099817687088 0
C 118.07605969967423 91.00402918543644 0
C 120.22141775566313 92.22736063414294 0
C 122.36705850771241 93.45084796638832 0
C 124.51299708156951 94.67435910437526 0
C 126.65924673704265 95.89776111661091 0
C 128.80604980974897 97.12088433582167 0
C 130.95332519841284 98.34360358531934 0
C 133.1012359089512 99.56568084633778 0
C 135.24972844034218 100.78701991797375 0
C 19.641380448042607 32.92620948397465 0
C 21.769711629991935 34.13444301241385 0
C 23.89753925029337 35.343830533215055 0
C 26.025196827455304 36.554235427752126 0
C 28.1526222367807 37.7654395816688 0
C 30.280063329916853 38.97733653738717 0
C 32.407505754426545 40.18974906157692 0
C 34.535069974719605 41.40257088074226 0
C 36.66290302433504 42.61573883684105 0
C 38.79105915516793 43.82903795086102 0
C 40.91957302867125 45.04237055037138 0
C 43.048524812639485 46.25558585393188 0
C 45.178105008574995 47.468511267707825 0
C 47.308319007814625 48.68099796303503 0
C 49.439231064844236 49.89300823837433 0
C 51.57106206986413 51.10425611893897 0
C 53.703826006874095 52.31474614615348 0
C 55.837642751556366 53.52416514633028 0
C 57.9727015661408 54.73230757382099 0
C 60.108990666898876 55.93917363851224 0
C 62.246690413321076 57.144540374159014 0
C 64.3859595222131 58.34823130062342 0
C 66.52681355835846 59.55032439760176 0
C 68.66932810058671 60.75081426937825 0
C 70.81348545528506 61.949758813240926 0
C 72.95919892011352 63.14736985883572 0
C 75.1063845068804 64.34395751806503 0
C 77.25469025953211 65.54010020908719 0
C 79.40401561955895 66.73620899814598 0
C 81.55381545284185 67.93294158960605 0
C 83.7039763898998 69.13087558674404 0
C 85.85398100935282 70.33040357968672 0
C 88.0037724801058 71.53184854304098 0
C 90.15293193475833 72.73549821845243 0
C 92.3015220386462 73.9413846045387 0
C 94.449376625764 75.14951855540949 0
C 96.59662735737272 76.35973921701057 0
C 98.74323111587444 77.57202042423798 0
C 100.88925221963812 78.78608734183013 0
C 103.03469113203198 80.00193207916631 0
C 105.17983790284813 81.21909889030309 0
C 107.32466316552608 82.43767319688405 0
C 109.468976604436 83.65737706067331 0
C 111.61330303684436 84.87807434082796 0
C 113.7574179989845 86.0995369586724 0
C 115.90166079273473 87.32166081183698 0
C 118.04583755854202 88.54428542622536 0
C 120.19025866288338 89.76727731532046 0
C 122.33475167183894 90.99052325525405 0
C 124.47968241455783 92.21383830683031 0
C 126.62492725494711 93.43712809970796 0
C 128.77063231696468 94.66023486991834 0
C 130.91687914383738 95.8829660225197 0
C 133.06368616607134 97.10521988638148 0
C 135.21125163481184 98.32677305493334 0
C 137.35950288754205 99.54752329157768 0
C 139.50869676839542 100.76713853272942 0
C 17.49256584854881 29.248058413266932 0
C 19.62218983708843 30.454570002606573 0
C 21.751110643261487 31.662609006074987 0
C 23.87975134747411 32.87198959767693 0
C 26.007956678407695 34.08244817539687 0
C 28.136099046201856 35.29388231090121 0
C 30.26410044754179 36.50607761140359 0
C 32.392128481825 37.7189178366119 0
C 34.520301768441016 38.93231662235018 0
C 36.64864448732001 40.146075178133565 0
C 38.777309500055054 41.360045121340455 0
C 40.90624431383528 42.57411868050679 0
C 43.03568820937781 43.788115965178086 0
C 45.16561355373987 45.00189346653173 0
C 47.296113726219154 46.215388550059004 0
C 49.42733417583626 47.42843129213857 0
C 51.55934252119843 48.64087088060365 0
C 53.69218716229875 49.85248812069074 0
C 55.82607511241352 51.06310172490143 0
C 57.960982432361256 52.27262361264864 0
C 60.09712791578768 53.48083337304028 0
C 62.23455435236694 54.687624661188664 0
C 64.37342509736764 55.8928841206114 0
C 66.51379136527709 57.09654796539125 0
C 68.65573104630323 58.29849005785728 0
C 70.79912908528678 59.49896611887776 0
C 72.94411780836134 60.69789123383117 0
C 75.09050140783866 61.89562178902527 0
C 77.23814138079602 63.092553319496645 0
C 79.3866868170909 64.28924467484237 0
C 81.53596421782268 65.48621515470631 0
C 83.68551596191213 66.68396762221518 0
C 85.8351974880941 67.88299354243674 0
C 87.98446271080266 69.08378745092955 0
C 90.13321762448189 70.28665711178563 0
C 92.28157666892083 71.49141284672571 0
C 94.42907781297525 72.69851471554078 0
C 96.5758890834116 73.90773873380294 0
C 98.7221379170235 75.11887674399865 0
C 100.86765263138578 76.33200175832543 0
C 103.01251812465712 77.54682359548204 0
C 105.1570227869065 78.76320484320827 0
C 107.30089902038645 79.98096053405004 0
C 109.4446134338926 81.19995673787716 0
C 111.58797837176763 82.41992561920634 0
C 113.73124960340206 83.64082126601386 0
C 115.87442034125714 84.86238104660444 0
C 118.01762293957547 86.08455251944858 0
C 120.16101213214098 87.30711167054602 0
C 122.30448593990862 88.53001023348634 0
C 124.44822565550146 89.75306815543897 0
C 126.59226478348583 90.97615354062683 0
C 128.73674796626975 92.19909961019358 0
C 130.88175885711007 93.4217844819531 0
C 133.02738972118576 94.64406120596902 0
C 135.17357554050997 95.86579757900138 0
C 137.32066692479438 97.08674299362929 0
C 139.46853902344174 98.3067988848352 0
C 141.617520624745 99.5256023642422 0
C 143.7674527125904 100.74298570514966 0
C 15.339360136992038 25.57238983259829 0
C 17.470753415834974 26.77669230563469 0
C 19.60129216228531 27.983040836119006 0
C 21.731180104295763 29.190847314711952 0
C 23.86057646381612 30.40025770168132 0
C 25.989643160833236 31.61081031622521 0
C 28.11845431774949 32.82246968982487 0
C 30.24723696267189 34.035059061587376 0
C 32.37596009013135 35.24841164965108 0
C 34.504860372468166 36.46235343383946 0
C 36.63380304305379 37.676708947070985 0
C 38.76301724592724 38.89135101927522 0
C 40.89260802057896 40.10612144208441 0
C 43.02249104273551 41.32091610675396 0
C 45.15285525890332 42.535603346802226 0
C 47.28377356487919 43.750060592322264 0
C 49.41533860781011 44.96412051634169 0
C 51.54763143529402 46.17750209190137 0
C 53.680622340658 47.390304331735 0
C 55.8146008042938 48.60204861195258 0
C 57.94945704782068 49.81290625786764 0
C 60.0855029242774 51.02240718675297 0
C 62.22277829933388 52.230627660059945 0
C 64.36134671978178 53.437347183597055 0
C 66.5012553551478 54.642518311638625 0
C 68.64269131253135 55.84592221691297 0
C 70.78556962792008 57.047709582513725 0
C 72.92987822842164 58.247994831483 0
C 75.07559792907874 59.446890952667985 0
C 77.22250976666002 60.64483105319251 0
C 79.37051199952319 61.842143616361405 0
C 81.51916888533462 63.03941396823054 0
C 83.66833032600172 64.23710944175714 0
C 85.81746680988472 65.43585830086431 0
C 87.96648567129657 66.63604010819134 0
C 90.11503718876493 67.8379564465784 0
C 92.2629691902463 69.0419484689549 0
C 94.41018423733188 70.24802249350384 0
C 96.55671983049479 71.45614170292362 0
C 98.70245383103034 72.666342977445 0
C 100.84761744602918 73.87832850196962 0
C 102.99196852640357 75.0922458610005 0
C 105.13584970673402 76.30763527125895 0
C 107.27920683585207 77.52457167504699 0
C 109.42211061742881 78.74269029620487 0
C 111.56473078492007 79.96200407083367 0
C 113.70711830324723 81.18215761856924 0
C 115.84934271871452 82.40317803872153 0
C 117.99163176222517 83.62474903964744 0
C 120.13380000249461 84.8468960269609 0
C 122.2761790397758 86.06936302470743 0
C 124.41874027206624 87.29206004211414 0
C 126.56152026429325 88.51483241575232 0
C 128.70478360057876 89.73754427456355 0
C 130.84845638221373 90.96008852242667 0
C 132.99256617470425 92.18231619635776 0
C 135.13740754875172 93.40404813368332 0
C 137.2829497618122 94.62515648612126 0
C 139.42945421226958 95.84537728072112 0
C 141.5767580257644 97.06453135046421 0
C 143.72527866371541 98.28230969203146 0
C 145.8749001265651 99.49856615093249 0
C 148.02588251252507 100.71289622846773 0
C 13.180468932128504 21.900183266487772 0
C 15.314166155331266 23.101513398487175 0
C 17.446667420774666 24.305356998419732 0
C 19.57843891916436 25.511344066933347 0
C 21.709301374515643 26.71912571811746 0
C 23.839836326068625 27.928544441861504 0
C 25.969817577340752 29.13933262297762 0
C 28.099666717553056 30.35135106280258 0
C 30.229288401515674 31.564377352358726 0
C 32.358906238139994 32.778208676630456 0
C 34.48846030067458 33.99267353842728 0
C 36.61819750161463 35.20764320287293 0
C 38.74818076508538 36.4229439163132 0
C 40.87830420834367 37.638449571080045 0
C 43.008806819585246 38.85405600054281 0
C 45.139744828086364 40.06961150278817 0
C 47.27112848415069 41.28498186384745 0
C 49.40301112859793 42.499973079190895 0
C 51.535624662918025 43.71443363031889 0
C 53.66887225825311 44.928203114716766 0
C 55.802988116589525 46.14116458361955 0
C 57.93798496355038 47.35309274458066 0
C 60.074041657064015 48.56395689527388 0
C 62.211188946246715 49.773482494061895 0
C 64.34948015152503 50.981644276661925 0
C 66.48915995265303 52.18809327001297 0
C 68.63012513139277 53.39298127384306 0
C 70.77246811367874 54.59621892360335 0
C 72.91626033756427 55.79775715647851 0
C 75.06136503032828 56.997920780998086 0
C 77.20775126943339 58.19679846354488 0
C 79.35512502478552 59.39487467145253 0
C 81.50334343864475 60.59253168715637 0
C 83.65196516406621 61.790367623119344 0
C 85.80078684136716 62.98891787379206 0
C 87.94952782174636 64.18851554294649 0
C 90.09783736969035 65.38979404946035 0
C 92.24554276714915 66.59287321147801 0
C 94.39271413939902 67.79781538632847 0
C 96.53886023902946 69.00499530962108 0
C 98.68434391803832 70.21408136337352 0
C 100.82908107402159 71.42510429773135 0
C 102.9731147258713 72.63788812638705 0
C 105.11647373981262 73.85241230071126 0
C 107.25925566726043 75.06834739359104 0
C 109.40148026624018 76.2857331807564 0
C 111.54339175849898 77.50413855721729 0
C 113.68510448431466 78.72362006605346 0