ITEM: TIMESTEP
0
ITEM: NUMBER OF ATOMS
1876
ITEM: BOX BOUNDS xy xz yz pp pp pp 
-26.63209905 53.26419811 -26.63209905 
0.00000000 46.12814867 0.00000000 
-20.000 20.000 0.000 
ITEM: ATOMS type x y z
C -24.542165500053606 44.831277071760766 0
C -22.374059669774052 45.994362616641325 0
C -22.450808795150476 43.536793035236585 0
C -20.28269518551388 44.70280352358624 0
C -18.11577919399653 45.873521974032506 0
C -22.52484224180306 41.08057412789362 0
C -20.356901832035554 42.24651290204677 0
C -18.188974431665578 43.416129476010134 0
C -16.02223668544173 44.5907828668098 0
C -13.856998878106278 45.77007647651894 0
C -20.427552541458734 39.7917712954511 0
C -18.259843080248263 40.960992939888584 0
C -16.092569342091316 42.134447074752856 0
C -13.926171048664246 43.312633802346056 0
C -11.76134524441008 44.495245251500066 0
C -9.598090797628076 45.68179400470656 0
C -20.49368096300327 37.338321378109676 0
C -18.32703738067016 38.507613508792666 0
C -16.160220972556562 39.68040934314598 0
C -13.993572357036205 40.85723837149458 0
C -11.82794339938422 42.038551668204406 0
C -9.663797018190643 43.223847422874236 0
C -7.500874973667766 44.41252935555915 0
C -5.3391180522122195 45.60376706363752 0
C -18.389789817596206 36.05547577513482 0
C -16.223927838415936 37.22793169380803 0
C -14.057878356489294 38.403807380818215 0
C -11.892432925983695 39.58372153301986 0
C -9.728096894130141 40.76772726331811 0
C -7.564653435597357 41.95500285189534 0
C -5.40240057411465 43.145288929287844 0
C -3.2411559378621266 44.3376557187207 0
C -1.08031177471898 45.53117335865249 0
C -18.447782214642093 33.60416074455321 0
C -16.283269500311963 34.77647540459748 0
C -14.118021404753708 35.9515922110421 0
C -11.953375719677844 37.13034341525055 0
C -9.789448017988065 38.31286071977051 0
C -7.626232564383737 39.498794823252126 0
C -5.4643393057761 40.68779888447627 0
C -3.303170828186519 41.87920956429376 0
C -1.1425834334628233 43.07213381802121 0
C 1.0177734137345689 44.26585207540408 0
C 3.17823183934653 45.459584378417055 0
C -16.338668708833183 32.325960523030965 0
C -14.174798548488491 33.50062467351502 0
C -12.010771243888335 34.67823348073132 0
C -9.847673302460928 35.85933070031863 0
C -7.685055785629204 37.04367574723485 0
C -5.523646217673801 38.23124075666411 0
C -3.363202485686461 39.42128685934095 0
C -1.2033184643933827 40.613314123515366 0
C 0.9562359431803793 41.80640818820217 0
C 3.1157011619471064 42.99994315857948 0
C 5.275622557379635 44.1930490095744 0
C 7.43628750992503 45.38490925603012 0
C -16.390524988197857 29.875737499679975 0
C -14.227786891569014 31.050299256948378 0
C -12.064894008050448 32.22703946090556 0
C -9.902525650449352 33.406830075761846 0
C -7.740843434618759 34.58955978132606 0
C -5.580236353796091 35.775499642446405 0
C -3.4205051403276525 36.964025414785496 0
C -1.2617230873580423 38.1546817577006 0
C 0.8966999385153231 39.346853078791 0
C 3.0548002109265187 40.53975710978573 0
C 5.213183263273826 41.73265469390572 0
C 7.372201712312337 42.924663585812645 0
C 9.532218533768116 44.114934290048296 0
C 11.693814094834874 45.30236321267303 0
C -14.278028720098929 28.600437146931533 0
C -12.115988846141692 29.77654205068553 0
C -9.954352052543097 30.954985620189145 0
C -7.793451073474201 32.136230459620386 0
C -5.633753827940275 33.32035658130406 0
C -3.475006081923675 34.50724609874976 0
C -1.3172834606109738 35.69638222869142 0
C 0.8397069828572993 36.887210508698864 0
C 2.99635959281136 38.079154158913134 0
C 5.152879340669196 39.27141103501552 0
C 7.309874235035283 40.46320787679216 0
C 9.467727018452738 41.65360494477677 0
C 11.62676826735871 42.841735339613216 0
C 13.787766456347631 44.02646604566061 0
C 15.950679960135254 45.20709184817702 0
C -14.32620476262144 26.150752805009574 0
C -12.164787673017388 27.32646321023497 0
C -10.00374438606458 28.50378991212146 0
C -7.843522799218789 29.683478187419727 0
C -5.684448048380191 30.865864441947465 0
C -3.5266443348479393 32.050803831102186 0
C -1.369956297059717 33.238255201948 0
C 0.7857435939045109 34.42753547642986 0
C 2.940726664406677 35.618153064845146 0
C 5.095456230715787 36.809439353841455 0
C 7.2502570647133275 38.00059550446293 0
C 9.405610079906838 39.190790397168804 0
C 11.562069515982488 40.379075038432106 0
C 13.719975874673832 41.56457736481089 0
C 15.880091531201284 42.746153514502886 0
C 18.04237086747023 43.92319066973708 0
C 20.207170362012604 45.094964328065586 0
C -12.21215106986987 24.876642436812286 0
C -10.051411214743826 26.053063492289137 0
C -7.89155476799876 27.2312094619036 0
C -5.732991091091037 28.411782241580795 0
C -3.5758566939727503 29.59487936802792 0
C -1.4201055142308887 30.78028204931379 0
C 0.7345161056798468 31.967840490603294 0
C 2.8880483455017543 33.156912869217614 0
C 5.040961809587392 34.34692268670371 0
C 7.193867899252253 35.53712151342459 0
C 9.34670870174886 36.72677821104263 0
C 11.500422054142923 37.91492375567318 0
C 13.655405225039068 39.10067970556323 0
C 15.812093823242492 40.283140066933136 0
C 17.97120610494885 41.46112379721189 0
C 20.132842233535456 42.63443414112852 0
C 22.297299860437924 43.802552466610166 0
C 24.46403517826869 44.96664700015797 0
C -12.25889810076222 22.426992038734305 0
C -10.09817195914933 23.602617685396904 0
C -7.938419953110336 24.779470183538088 0
C -5.779963976585429 25.958095421486323 0
C -3.6231770930091862 27.139175301334134 0
C -1.467969725394 28.322559773016277 0
C 0.6856105283184293 29.508136876804336 0
C 2.8379789442119088 30.695529337989704 0
C 4.989577385389272 31.883950196811398 0
C 7.140497389162604 33.07299664619552 0
C 9.291267442720757 34.261813493070164 0
C 11.442403902058913 35.44960265370018 0
C 13.594642853296921 36.635417916655726 0
C 15.748190616025333 37.81837474596324 0
C 17.90366103873336 38.99744757077095 0
C 20.062036735647265 40.1721906390713 0
C 22.223059099368683 41.34197717356183 0
C 24.38735747116697 42.50743580100712 0
C 26.553971882904765 43.66976886679627 0
C -10.14485176558301 21.152444463282198 0
C -7.984761967960631 22.327950351621105 0
C -5.826151643542347 23.504862930029805 0
C -3.6694140680787233 24.683805677631593 0
C -1.5144924800379993 25.865067393680977 0
C 0.6385387330791897 27.04858935941641 0
C 2.7901442116697193 28.23390838684047 0
C 4.940559302006706 29.420726840888587 0
C 7.089919203302839 30.608389427928667 0
C 9.239036556029111 31.796179133879054 0
C 11.388154282349948 32.98334974796523 0
C 13.537592190303684 34.16900824412812 0
C 15.68850741505753 35.3523080776925 0
C 17.84083763778997 36.53224668920838 0
C 19.99564006293657 37.708331414216225 0
C 22.15356456967999 38.88013438984525 0
C 24.314384530222934 40.0474527075777 0
C 26.478633918609262 41.21131588825196 0
C 28.645323754490523 42.37376975091774 0
C -10.192381661602957 18.70242610898607 0
C -8.03158762413534 19.876804524428476 0
C -5.87243570697437 21.05197023091015 0
C -3.7153398351882507 22.228887816056517 0
C -1.5602680351503746 23.407736666036858 0
C 0.5925631388352636 24.589113975657696 0
C 2.7436886404220244 25.77234513685072 0
C 4.893236954822571 26.95731481500203 0
C 7.041608094669898 28.1434671358036 0
C 9.189341894241279 29.330038777437053 0
C 11.336800989468598 30.51645404075336 0
C 13.484426906323062 31.701843752895105 0
C 15.632755779791655 32.8853641583895 0
C 17.782769254390452 34.06626228223626 0
C 19.934492140425125 35.24357699335718 0
C 22.0890807592556 36.417125854246684 0
C 24.246872813575983 37.586587612473735 0
C 26.408040227312476 38.752881142381554 0
C 28.572719938511074 39.91682313467211 0
C -8.079877671517867 17.425872834324935 0
C -5.919667745782191 18.599376761365715 0
C -3.7617507216499226 19.774154929644443 0
C -1.606198325992851 20.95078170148125 0
C 0.5470513318947383 22.12951051423555 0
C 2.6980853720542637 23.310589420226496 0
C 4.847224304846973 24.49365408213366 0
C 6.994907526309527 25.67820264113765 0
C 9.141622550841678 26.863587114898852 0
C 11.287872862528639 28.049131921330723 0
C 13.43413014596853 29.234195500700622 0
C 15.58078339987427 30.41789593398093 0
C 17.728552786125807 31.59951444384686 0
C 19.87821956710901 32.77832311270393 0
C 22.030028341567842 33.953696996266075 0
C 24.185065604497524 35.12568560734593 0
C 26.343396370383672 36.294157749420556 0
C 28.50499047890245 37.460268517088494 0
C 30.669929955322733 38.62544971087188 0
C -8.130469554523525 14.975008998234241 0
C -5.968963500656832 16.14709218158218 0
C -3.809671709991407 17.319630161012466 0
C -1.6531313923420126 18.49390503295168 0
C 0.5008195987636737 19.670172666057482 0
C 2.652216465280682 20.84894268130617 0
C 4.801398470556096 22.030007472960875 0
C 6.9489296391414745 23.21274456771824 0
C 9.095187809327454 24.39683502049664 0
C 11.240689129529633 25.58155363566886 0
C 13.385950404866561 26.76622862979682 0
C 15.53149599537575 27.9500774624554 0
C 17.677856483211542 29.132404419379927 0
C 19.825739378294053 30.312655635139343 0
C 21.975704768556234 31.489836651906508 0
C 24.12825159545923 32.66420187810216 0
C 26.284125715642187 33.83532318603099 0
C 28.443215226089052 35.003781452956126 0
C 30.605527887817512 36.17096059574293 0
C -6.021297541590981 13.694810024143225 0
C -3.8603446442843756 14.865487701357548 0
C -1.7021242565745363 16.03712263842623 0
C 0.4529422518394745 17.211043134691053 0
C 2.6052654624967064 18.387334244308445 0
C 4.755083622555862 19.566061166699896 0
C 6.902830250618737 20.747081132213804 0
C 9.04908500867045 21.92988926735464 0
C 11.194366589530324 23.113778118955782 0
C 13.339209357274806 24.298130693317525 0
C 15.484126109729974 25.482244240544784 0
C 17.629701370625074 26.6653611383344 0
C 19.77643758384365 27.846824283437257 0
C 21.924987736690472 29.026067991762808 0
C 24.07593004562182 30.202479728730182 0
C 26.229584002530395 31.376301815925814 0
C 28.38659861176031 32.547387233620306 0
C 30.54668962999012 33.71675524282471 0
C 32.709524611323744 34.88555591148641 0
C -6.077421694557189 11.242514093425456 0
C -3.9146126020806444 12.411349669890836 0
C -1.7545601550556098 13.580686759730686 0
C 0.40247788107502724 14.751802076218608 0
C 2.556153769318437 15.925664463092925 0
C 4.707104671974006 17.1021161904141 0
C 6.855666477550576 18.28135332480966 0
C 9.002402102465204 19.462805336349316 0
C 11.147983222307484 20.645921854278416 0
C 13.292879382898091 21.830009120204775 0
C 15.437730925204903 23.014353707312353 0
C 17.58298477349871 24.198277571336277 0
C 19.729247690372045 25.380994292291273 0
C 21.876970391661615 26.562049124474463 0
C 24.02675915729052 27.740853021083396 0
C 26.179079290813135 28.917083284748134 0
C 28.334136822408652 30.09094901355759 0
C 30.492384627425324 31.262610618915133 0
C 32.65327706831545 32.43324303300073 0
C -3.973433674004994 9.957194255003019 0
C -1.811175174932014 11.12432685522145 0
C 0.348049363495508 12.292950490932991 0
C 2.5038876150499574 13.463982265232861 0
C 4.65642142902019 14.638285601895081 0
C 6.806410421926607 15.815548033182052 0
C 8.954249703770156 16.995686874570374 0
C 11.100610633807918 18.178037741677866 0
C 13.246151535024369 19.361894104489032 0
C 15.391360744480039 20.54656017316996 0
C 17.53686400613436 21.73127656410617 0
C 19.683107819204526 22.915367008088797 0
C 21.830611071758995 24.098149805822114 0
C 23.979808652449726 25.279179588281682 0
C 26.13123996679787 26.457849336765758 0
C 28.285161563808398 27.634222194808196 0
C 30.44171741443876 28.80845340188042 0
C 32.6010510920838 29.98103237025347 0
C 34.76249684648669 31.15309966352002 0
C -4.037660697718757 7.502773335136943 0
C -1.8728063787300249 8.667961942374493 0
C 0.2888199964569902 9.834083867960652 0
C 2.4471750930250127 11.00260181088945 0
C 4.602132666831763 12.17441832854352 0
C 6.753986395021237 13.349906174936898 0
C 8.903597029198385 14.528622430461787 0
C 11.051369647331073 15.710255146954712 0
C 13.198029052550467 16.893943011021694 0
C 15.344216882423332 18.078968426193352 0
C 17.49040344910081 19.264528971540802 0
C 19.63714336774324 20.449912754934083 0
C 21.784890764788827 21.634398908374546 0
C 23.934017503337927 22.817465688054746 0
C 26.085020334737266 23.99858680398013 0
C 28.238217273377472 25.1774138269414 0
C 30.393810674982483 26.35399019788132 0
C 32.551753293010506 27.528718334121375 0
C 34.7119472732808 28.702252745063312 0
C -1.9404336091638037 6.2114415326567025 0
C 0.22415239846359863 7.375326062127518 0
C 2.3852034375293494 8.541441026552492 0
C 4.543022589520028 9.710917220863823 0
C 6.697609150959548 10.884480302332946 0
C 8.849449646653879 12.06198478476933 0
C 10.999367130228666 13.242755558967575 0
C 13.147707228016017 14.426283469698012 0
C 15.295357976802254 15.61166854947931 0
C 17.44278064239777 16.798071248866474 0
C 19.590436034658666 17.984666423429157 0
C 21.738774618306135 19.17085859230457 0
C 23.888340287366866 20.355827241967898 0
C 26.03939429632257 21.539152885320867 0
C 28.192353540825057 22.72040329086578 0
C 30.34743908564794 23.899241072831703 0
C 32.50455474640783 25.07613704408718 0
C 34.6636895804561 26.251336230897493 0
C 36.82444410225654 27.425738595076066 0
C -2.013259361030684 3.7544383915279105 0
C 0.15346670945830854 4.916822509922248 0
C 2.317776352189432 6.080724644089948 0
C 4.478666145703807 7.248177305049024 0
C 6.636394940732556 8.419654627341584 0
C 8.791219282882178 9.595797986482008 0
C 10.943692801122069 10.775910150330201 0
C 13.094500710586008 11.95911060063911 0
C 15.24398829640715 13.144790067346594 0
C 17.393127607795957 14.331952152956909 0
C 19.542140883973087 15.519756380362512 0
C 21.691676205203944 16.707351619528538 0
C 23.841985491154396 17.89421827250877 0
C 25.99359952501672 19.079533593626994 0
C 28.146687382853358 20.263004862280166 0
C 30.30152464714223 21.4443469412669 0
C 32.458371434249855 22.623179097898422 0
C 34.61689014883709 23.80018544379372 0
C 36.77696299341879 24.975709513558478 0
C 0.07808432444640961 2.458351953048922 0
C 2.244788461511858 3.620772259913508 0
C 4.409026677870739 4.786116771450826 0
C 6.570148920873097 5.956129315359301 0
C 8.72838042327389 7.130603155357007 0
C 10.884018494638493 8.309902049589718 0
C 13.037418559619375 9.492702569631648 0
C 15.189697229786198 10.67855383198744 0
C 17.34071741564106 11.866336170112648 0
C 19.491672285085766 13.055155322538093 0
C 21.642556342624108 14.244207243475314 0
C 23.793954142787896 15.43272635080979 0
C 25.946490442691037 16.620039299770227 0
C 28.10008818190732 17.80560643870778 0
C 30.2553802201348 18.98892030244547 0
C 32.41212257138057 20.17003352908419 0
C 34.5704418600132 21.34877801976789 0
C 36.73027468819392 22.52554985114221 0
C 38.891005566947946 23.701161158550715 0
C -2.5707775377116357e-06 -4.653681272761482e-06 0
C 2.1680509300928903 1.16151443429865 0
C 4.334795941413774 2.3255606338787427 0
C 6.499249642349148 3.4936769758444735 0
C 8.660901931614168 4.667071245766325 0
C 10.82002279937129 5.845061927637672 0
C 12.97664177242644 7.027448006929929 0
C 15.131682266803251 8.213266292175907 0
C 17.28538405297457 9.401408352586307 0
C 19.438396561999944 10.591055996550068 0
C 21.591122962418794 11.781275454247282 0
C 23.743995468846826 12.971301377201861 0
C 25.897529788720576 14.160380005120844 0
C 28.052219085698592 15.34790032316753 0
C 30.20803709040615 16.533252406505405 0
C 32.36506811973616 17.716416910803915 0
C 34.52366699526323 18.896952953667462 0
C 36.683472177950684 20.07513102307912 0
C 38.84426075943288 21.251495853326116 0
C 6.424925030260683 1.0333024624392746 0
C 8.589713507547867 2.2051396675795316 0
C 10.75203578338881 3.3821829535894348 0
C 12.91214053602505 4.563644182717871 0
C 15.06999940542967 5.749104365688868 0
C 17.226533976110836 6.937437068747964 0
C 19.381872391471802 8.127618877353786 0
C 21.53654678733309 9.318793486233568 0
C 23.69136978043055 10.510056893825586 0
C 25.846448013369532 11.700628288069522 0
C 28.002212137405714 12.889857603653786 0
C 30.158774588012903 14.07736369580278 0
C 32.316449084080276 15.262374955902972 0
C 34.47560297466252 16.44469379538867 0
C 36.6357977092975 17.624387911119182 0
C 38.7969344488865 18.801629323403436 0
C 40.95829166692054 19.97737793305256 0
C 10.681443752623492 0.9212098985069739 0
C 12.844355006401441 2.1018761981921417 0
C 15.005369139557482 3.286520626717861 0
C 17.164373950033564 4.47461586800614 0
C 19.322301442161503 5.665031029873758 0
C 21.4792563402361 6.856804581674572 0
C 23.63583701320681 8.049020847088888 0
C 25.79238747269872 9.240977896450126 0
C 27.949255507871012 10.43184647212761 0
C 30.107202331457973 11.62086195110039 0
C 32.26582843170908 12.807807769045908 0
C 34.425501414833995 13.991943756322941 0
C 36.586506481897025 15.173112301014449 0
C 38.748114798059 16.351574743094464 0
C 40.91013497371257 17.527697769829246 0
C 14.938287830922633 0.8259026534405655 0
C 17.099904208247803 2.013272845061914 0
C 19.259916828600446 3.203526665173315 0
C 21.418935425985694 4.395517293510916 0
C 23.57726147466239 5.588413686647029 0
C 25.735487358122853 6.781270913739016 0
C 27.893836304882107 7.9734598819851845 0
C 30.052669734521555 9.164088749284595 0
C 32.21237280089653 10.352624501609345 0
C 34.37289452179772 11.538615417752608 0
C 36.534520587954866 12.721391816570083 0
C 38.69709735610299 13.901054836272568 0
C 40.859895996071415 15.077873690599823 0
C 43.02263164880534 16.252454077169322 0
C 19.195816713846213 0.743221569997109 0
C 21.35646822121968 1.935084042152707 0
C 23.516381599591472 3.1281929791656866 0
C 25.675882398442763 4.321720039526623 0
C 27.835359495461102 5.514844809793655 0
C 29.995302369889917 6.7068579865752325 0
C 32.1558310220485 7.896875118500022 0
C 34.31730057813318 9.084417554527509 0
C 36.47970354268309 10.268903211262478 0
C 38.64301285011847 11.449896584617523 0
C 40.80692115376428 12.627604547420056 0
C 42.97072314370121 13.802318061804327 0
C 23.453854907912515 0.6685324731526131 0
C 25.614315776749255 1.8622791478259892 0
C 27.774636431724563 3.056024238696341 0
C 29.93523332509417 4.248964659102337 0
C 32.09645818501542 5.440369595866683 0
C 34.2584455738743 6.629342901968486 0
C 36.42148747148371 7.815382273374612 0
C 38.58555282093012 8.997835317313033 0
C 40.75034265121814 10.176506564267331 0
C 42.91537815199194 11.351757374708626 0
C 45.07982284867232 12.524097693246036 0
C 27.71240424841689 0.5969841449012379 0
C 29.873218365583348 1.7905266656377967 0
C 32.03459623349679 2.98284727124867 0
C 34.19683199630078 4.173149953663948 0
C 36.360021068985674 5.36056409476247 0
C 38.52442112780073 6.544548346942126 0
C 40.68988962103178 7.724455047437368 0
C 42.855969754732776 8.900312074050724 0
C 45.02191607116597 10.072717015259947 0
C 31.971247341444403 0.5243882715914262 0
C 34.13296109232433 1.7156544690754503 0
C 36.295929614724464 2.9043137102217504 0
C 38.46025458301254 4.089508229831639 0
C 40.62565964017704 5.270946592283515 0
C 42.79239959349206 6.447717493901598 0
C 44.959085330732535 7.620576407183372 0
C 47.125793193649635 8.789827838389114 0
C 36.2301671741858 0.44637144593385136 0
C 38.39346328835173 1.6328824098605723 0
C 40.5582173210638 2.815531932965831 0
C 42.72468302478639 3.993665230230539 0
C 44.891955155103915 5.167108764619094 0
C 47.05975124802659 6.336293384414679 0
C 40.489158665472516 0.35792851606724657 0
C 42.65414896801507 1.5374364965479954 0
C 44.821030659104224 2.711944854602331 0
C 46.989026659287234 3.8815096859431097 0
C 49.15683639863826 5.047503968485087 0
C 44.74788563550271 0.2544374869091531 0
C 46.914729184024594 1.4252283310470386 0
C 49.08290187241741 2.5912082584316316 0
C 49.00613454836204 0.13369293093985984 0
C 51.17421671409961 1.296843198169761 0
C -23.793448143439488 46.03811681323884 0
C -23.870959977163544 43.580204377385485 0
C -21.702699210390108 44.74413486726213 0
C -19.535221252898637 45.91180888293376 0
C -21.777971964059883 42.28744672206099 0
C -19.6097281399766 43.4545403752793 0
C -17.44237391109301 44.62603544158149 0
C -15.276635794400324 45.80269482053901 0
C -21.849548326876498 39.8321896672994 0
C -19.682003881374037 40.99924315724874 0
C -17.51418144550732 42.17001587197294 0
C -15.34714760087749 43.34525108601571 0
C -13.18172779015999 44.52553574157703 0
C -11.017801579808161 45.709895189868945 0
C -19.750021814299487 38.54546015733121 0
C -17.582920229746378 39.71585514686982 0
C -15.415806436413616 40.89021553526571 0
C -13.249499968819912 42.06889882146155 0
C -11.084475819805172 43.25208799158475 0
C -8.921046301785697 44.439036101143415 0
C -6.758771741128525 45.62892744241384 0
C -19.813019314085174 36.09276700712974 0
C -17.647317088596807 37.26316581612739 0
C -15.481032424547614 38.436887647522845 0
C -13.31471468056322 39.61436703456265 0
C -11.149688079578599 40.79615169914309 0
C -8.985498422240665 41.98176356253965 0
C -6.822811487985823 43.17067817784998 0
C -4.660927272494801 44.36202101500284 0
C -2.499877183010875 45.555059186408435 0
C -17.707162541624356 34.811635212628524 0
C -15.542147786285286 35.98489969654899 0
C -13.376850102415284 37.16158064249398 0
C -11.21206783296712 38.341976190945466 0
C -9.048050437091344 39.52602239887319 0
C -6.885353002774325 40.71369068426496 0
C -4.723394669328196 41.903884149323346 0
C -2.562283734589107 43.0961825826966 0
C -0.40170862587304307 44.28968819417897 0
C 1.758743759988156 45.48359535049385 0
C -17.763067874359066 32.36080910865726 0
C -15.599077063394944 33.533983056559535 0
C -13.43493294100671 34.70979180780206 0
C -11.270700135069623 35.88889738509001 0
C -9.107513881562651 37.07161474616123 0
C -6.9452754966684855 38.25767577472511 0
C -4.78394860759289 39.446675205300515 0
C -2.6233186642304314 40.637802040359446 0
C -0.46332408867991015 41.83059696364482 0
C 1.6965213397779932 43.024127595948464 0
C 3.8564455945087763 44.21770073083969 0
C 6.017000484800846 45.41042516760206 0
C -15.652511174278095 31.08370258248446 0
C -13.489479022328045 32.25914068508636 0
C -11.326325029682598 33.43704397781922 0
C -9.163692874088404 34.618244365660594 0
C -7.002321061220769 35.80275148996704 0
C -4.841542246222834 36.99002849403189 0
C -2.6818705639493725 38.17991541918719 0
C -0.5229485231215805 39.37157961664909 0
C 1.635825647044546 40.56439542539139 0
C 3.7944359567198735 41.75760268356839 0
C 5.953535919937196 42.95039330374115 0
C 8.113537109415912 44.14182697941116 0
C 10.27469570755759 45.331054357744364 0
C -15.703026069834284 28.633809664589606 0
C -13.54073631155794 29.80886146707266 0
C -11.378612495285196 30.986027992551346 0
C -9.21686171579902 32.16570284259799 0
C -7.056140282080905 33.34857438372766 0
C -4.896403922509297 34.53418345687913 0
C -2.737670288962758 35.7224249798717 0
C -0.5798243353768272 36.91274729314578 0
C 1.577400581999634 38.104442989446824 0
C 3.7345562442252915 39.296918390506605 0
C 5.891851444422835 40.489323911801655 0
C 8.049775902038201 41.68085723778059 0
C 10.208849595476877 42.87051020954862 0
C 12.369333650777499 44.057441145979716 0
C 14.531803400184687 45.240573608430786 0
C -13.589804805372287 27.359070505835447 0
C -11.428264465418874 28.535450579261052 0
C -9.26727807809965 29.71392659135144 0
C -7.1071995022221985 30.89497925049225 0
C -4.948311758562126 32.078917225557376 0
C -2.7906117197894935 33.265341130304634 0
C -0.6339160871049313 34.454042615820306 0
C 1.5219750750820606 35.644376974197 0
C 3.6773256303821484 36.83570683287528 0
C 5.832761355172598 38.027363370522224 0
C 7.988411470489378 39.21851007923973 0
C 10.144916734760244 40.408246332347176 0
C 12.30282304959197 41.5955835660167 0
C 14.462366178230964 42.77970679772324 0
C 16.624257120305806 43.95940631675145 0
C 18.78833074471885 45.13434852483884 0
C -13.637228763243446 24.90947300726153 0
C -11.47615302710464 26.085267251161937 0
C -9.315581166775285 27.262594226734542 0
C -7.15600234367712 28.44202467654888 0
C -4.997756910422518 29.62403137639073 0
C -2.8408209854573188 30.808607025730915 0
C -0.6852448731427125 31.995421666563562 0
C 1.4693887283682452 33.184141722591924 0
C 3.6231852357025573 34.37411703049301 0
C 5.776610562093333 35.56467061178647 0
C 7.930103934773178 36.755106350115696 0
C 10.084054834397968 37.944543608067285 0
C 12.239083940743877 39.13205636469121 0
C 14.395617439867134 40.31661404693527 0
C 16.554071959880794 41.49751286207753 0
C 18.715242195848482 42.67358389364083 0
C 20.878865022863604 43.844674593464 0
C 23.044970933346598 45.01082076859836 0
C -11.52303617635225 23.635403969749248 0
C -9.362603878098087 24.811617679733196 0
C -7.203271952588829 25.98956080038038 0
C -5.04533477564387 27.16961793254155 0
C -2.889038865526064 28.352197017196893 0
C -0.7340689138941685 29.536992504633414 0
C 1.4193468621717484 30.723833627940106 0
C 3.57188737047965 31.912213561832026 0
C 5.723690179372394 33.101438940102675 0
C 7.87504818162189 34.29088467787254 0
C 10.026752110774904 35.47971753487833 0
C 12.178876231874508 36.66704911461244 0
C 14.332344812704472 37.85188849733749 0
C 16.487639407855774 39.0334278212594 0
C 18.645112908727807 40.21089275519968 0
C 20.805555354970004 41.383223810292336 0
C 22.96884625240629 42.55113395637016 0
C 25.134809748661205 43.71480904092894 0
C 27.302588570143815 44.876332940505726 0
C -11.569784900944791 21.185644231976323 0
C -9.40914286092629 22.361014108475985 0
C -7.2496449292940035 23.537375997924396 0
C -5.091767127836612 24.715632985803854 0
C -2.935596902448303 25.895985002510518 0
C -0.7813092453874523 27.07879987390792 0
C 1.3714666860226248 28.26362963534464 0
C 3.5228751690044646 29.45010856324382 0
C 5.673216102631836 30.637886830528675 0
C 7.823024959518429 31.826060591797482 0
C 9.972574522517506 33.01403927365635 0
C 12.122472563964411 34.20092875644132 0
C 14.273207879802913 35.38597342109373 0
C 16.425494329553256 36.56810379633772 0
C 18.579718024556367 37.74657963530881 0
C 20.73640010646369 38.920628659393735 0
C 22.896414755531524 40.0899800192573 0
C 25.059548113868583 41.25554705180004 0
C 27.22560776504993 42.418247596517276 0
C -9.45606947614919 19.9106237374841 0
C -7.296020216314435 21.085560391363423 0
C -5.1377287654593555 22.26184379320679 0
C -2.9813991907940567 23.44007846877245 0
C -0.8272121877730535 24.620597955157557 0
C 1.3251657035566733 25.803285424789944 0
C 3.4758819835589096 26.987871637493228 0
C 5.625148746484088 28.17392344848051 0
C 7.77372226926764 29.36076943024718 0
C 9.921564561538545 30.547764163905526 0
C 12.069497295780414 31.734112893922514 0
C 14.217964092918729 32.91895505727224 0
C 16.367514423881577 34.1016286201655 0
C 18.518871544117147 35.28094679921931 0
C 20.672526326938844 36.45664170560481 0
C 22.829158949527574 37.62832251159623 0
C 24.98930438791484 38.7958605644203 0
C 27.152416403515904 39.960282503872136 0
C 29.318534144766893 41.1234435651536 0
C -9.504287648135074 17.460364930133736 0
C -7.3434184859201075 18.634133668631762 0
C -5.18431190140593 19.808532622927512 0
C -3.0274007008781414 20.98449883982871 0
C -0.8729291412157947 22.162772415615812 0
C 1.279480296849403 23.343035128104237 0
C 3.429769243338202 24.52565865864852 0
C 5.57853620576468 25.709838371463885 0
C 7.72614287786112 26.89515416840187 0
C 9.87302079189572 28.08106604450572 0
C 12.019415075717172 29.26676710168383 0
C 14.166221700777786 30.451540812171267 0
C 16.313683584268727 31.63438332483321 0
C 18.462628791210303 32.8149399147444 0
C 20.613830270405643 33.99220770578178 0
C 22.767468143325484 35.165740765458544 0
C 24.92440213245367 36.33566347189833 0
C 27.08492311475245 37.50237866572187 0
C 29.24840800847901 38.66728208824901 0
C -7.392663016821828 16.18277360315218 0
C -5.232426941631073 17.355416661388134 0
C -3.0744263661238604 18.52918336330839 0
C -0.9191335462981323 19.70495708279156 0
C 1.233611900517805 20.883012315491047 0
C 3.384169788835238 22.063144156876753 0
C 5.53267719925639 23.245549586393523 0
C 7.679822088658768 24.42929902601807 0
C 9.825880035048586 25.614075326358353 0
C 11.97151450913177 26.799098912647132 0
C 14.117016019010505 27.98365824155269 0
C 16.263164683470713 29.167034920971034 0
C 18.410347998217546 30.348251489280432 0
C 20.559335019694473 31.527113266363642 0
C 22.710866575487273 32.70278369518499 0
C 24.8651039707397 33.875033049684504 0
C 27.022897810050583 35.04444215561412 0
C 29.18404373239606 36.211493589411184 0
C 31.347937306774607 37.377906900303735 0
C -7.444885430715134 13.731507886164861 0
C -5.283005316857826 14.902553511704806 0
C -3.1236394189916337 16.074116189907105 0
C -0.9669428698309309 17.24729436978887 0
C 1.1867677348114045 18.422728424597587 0
C 3.3378674517824356 19.600712494779405 0
C 5.486742070865165 20.780984381641453 0
C 7.633786006900471 21.96330492035235 0
C 9.779632997189838 23.146883809947674 0
C 11.924763571508588 24.331214996939195 0
C 14.069685761885264 25.515579779987196 0
C 16.21489592149882 26.699316995844196 0
C 18.361052822471894 27.88159840737586 0
C 20.50866879554439 29.061828689294035 0
C 22.65834933172223 30.23963774634418 0
C 24.810774128069703 31.414370116601447 0
C 26.96612741814499 32.58632716920849 0
C 29.124867656854896 33.75586712399035 0
C 31.28667868752621 34.924175176632055 0
C -5.337263849202384 12.449770068450478 0
C -3.17593714402941 13.619222616483416 0
C -1.0175622152811514 14.790013671026706 0
C 1.1377539248614714 15.962734698007266 0
C 3.2899474062555933 17.138330162395754 0
C 5.43962717764309 18.316441543180552 0
C 7.587250010392881 19.49699777164507 0
C 9.733314245285879 20.679538887454804 0
C 11.878481624630668 21.863229987965504 0
C 14.023253103791683 23.047496618613078 0
C 16.168181225372216 24.231596711618316 0
C 18.31373594287883 25.41492027167018 0
C 20.460592777080016 26.596629513812776 0
C 22.60918992097297 27.776306536575753 0
C 24.760087593255772 28.953531002632353 0
C 26.91382047069087 30.12805755507362 0
C 29.070452884578025 31.300269319590097 0
C 31.23024739643904 32.47069815219253 0
C 33.392592638327 33.64065775473798 0
C -5.39589366995452 9.996840635670747 0
C -3.2324314902414777 11.164452630718987 0
C -1.0719163823730693 12.332642364368661 0
C 1.0853254576628149 13.502878655272564 0
C 3.2394310860515314 14.67580206897752 0
C 5.390389544054924 15.851850176722289 0
C 7.539119747485118 17.03077529657635 0