ITEM: TIMESTEP
0
ITEM: NUMBER OF ATOMS
11908
ITEM: BOX BOUNDS xy xz yz pp pp pp 
0.000 201.293 67.098 
0.000 116.217 0.000 
-20.000 20.000 0.000 
ITEM: ATOMS type x y z
C 67.03205090803318 113.75775444475234 0
C 69.194581759266 114.9304846965226 0
C 71.35696907608231 116.10427724297129 0
C 64.80882117387571 110.12441702256928 0
C 66.96881735176294 111.29861473769375 0
C 69.1303020025641 112.47204483379039 0
C 71.2923019987096 113.64579621129704 0
C 73.45451683486704 114.82340468774163 0
C 75.61596448370919 116.00254803040849 0
C 62.60004637327329 106.48371329314699 0
C 64.75416216111701 107.6636208373928 0
C 66.90903582960236 108.83987048182955 0
C 69.06929394330636 110.01426187905832 0
C 71.22995479273492 111.18939507369682 0
C 73.39206108181503 112.36463910925825 0
C 75.55556342520785 113.54495760328027 0
C 77.71584056734156 114.72989232657277 0
C 79.87579904204739 115.91761671624405 0
C 60.40587923804698 102.83451653650253 0
C 62.552449418120965 104.02057013907216 0
C 64.70275718923072 105.20209883253949 0
C 66.85618385020908 106.38051500479355 0
C 69.01222247367768 107.55742482120411 0
C 71.17191666268725 108.73243322395072 0
C 73.33257660948513 109.91023494715421 0
C 75.49519174442834 111.08914746680658 0
C 77.65713044521624 112.27214142757936 0
C 79.81868173179444 113.46077020375823 0
C 81.97777183530013 114.65311280402776 0
C 84.13526341441646 115.85084248673647 0
C 58.224676343392844 99.1776645765314 0
C 60.36631505998788 100.36851122510728 0
C 62.51089545794109 101.55667862482939 0
C 64.65667966483335 102.74046523051706 0
C 66.8079203124731 103.92112094014067 0
C 68.96193812898606 105.09976938366387 0
C 71.11828145217422 106.27767881201905 0
C 73.2789566448437 107.45538938483703 0
C 75.43905995079459 108.63450632068955 0
C 77.60109922655283 109.81797445489741 0
C 79.76275805652975 111.00504581689209 0
C 81.92229876539743 112.19702957904761 0
C 84.0819811451695 113.39308642358482 0
C 86.23899429309077 114.5931195147842 0
C 88.39462462669412 115.79791066997994 0
C 56.05499133066189 95.51383024069695 0
C 58.19233074466878 96.70906927037414 0
C 60.331167331930594 97.90271058365792 0
C 62.472792047028456 99.09230126460889 0
C 64.61848103690618 100.27940884272826 0
C 66.76480837067243 101.4621906496956 0
C 68.91720306313452 102.64343377654978 0
C 71.0711642740757 103.82261612754688 0
C 73.22743299791114 105.00129156966075 0
C 75.3888812672321 106.18221352123217 0
C 77.5491387931272 107.3649211665089 0
C 79.70928732435925 108.55124892727257 0
C 81.87123182233925 109.74228952648615 0
C 84.02971716895529 110.93693978512071 0
C 86.18851397688599 112.13639263568652 0
C 88.34583487481933 113.3395980373477 0
C 90.50064376526169 114.54580534655629 0
C 92.65485417068153 115.75585663140326 0
C 53.894079690710235 91.8445716384609 0
C 56.027949558154916 93.04491541980542 0
C 58.16314865049424 94.24232871042338 0
C 60.300482466993344 95.43642023771645 0
C 62.440171544035735 96.62841854341265 0
C 64.58237605206938 97.81661431676207 0
C 66.72830977606446 99.00242759137035 0
C 68.87676587061281 100.18668264745952 0
C 71.02854659782156 101.36735263369114 0
C 73.18360545865802 102.54919217437262 0
C 75.34075866247811 103.7303499407336 0
C 77.50023300519449 104.91368072791245 0
C 79.66008913517939 106.10060949109379 0
C 81.82018355446247 107.28921402036556 0
C 83.98146778352847 108.48344120241492 0
C 86.13924319917518 109.68187932041192 0
C 88.2972895186763 110.88280676292351 0
C 90.45303890475915 112.08946875797909 0
C 92.60878763549093 113.29724373161899 0
C 94.76206025095487 114.50890369479022 0
C 96.9145542255015 115.72297879689339 0
C 51.739310471675 88.17131122616863 0
C 53.87074632910566 89.37493856542288 0
C 56.00323972037973 90.57531320087506 0
C 58.13711267026988 91.77469622587218 0
C 60.27341407577306 92.97129591877554 0
C 62.41136651489332 94.16403440859878 0
C 64.55188119320061 95.35558026187263 0
C 66.69574586983798 96.54386626798416 0
C 68.84181027503824 97.7287865125211 0
C 70.99135464387079 98.91367285232432 0
C 73.14415831258681 100.0960789803967 0
C 75.29979378104906 101.27889341243647 0
C 77.45660067322189 102.46335073375381 0
C 79.61536079216826 103.64927348723471 0
C 81.77415488196341 104.83947969415532 0
C 83.93402777557185 106.0317396839607 0
C 86.09305623317424 107.22830909245775 0
C 88.25150799930799 108.42919954410316 0
C 90.40794299851834 109.63316539563596 0
C 92.56389138988298 110.84087565051274 0
C 94.7179323193425 112.0514724469917 0
C 96.87102289649832 113.26406437361248 0
C 99.0235005220051 114.47964340407624 0
C 101.17411748555324 115.69667508076384 0
C 49.5896323668114 84.49495256155853 0
C 51.719606520766156 85.70111598848251 0
C 53.849901704104255 86.90530921502473 0
C 55.98105062275206 88.1074317653305 0
C 58.11444744088562 89.3067115470949 0
C 60.24904993067747 90.50554797550772 0
C 62.385819964246544 91.70062679206173 0
C 64.52551343748874 92.89415114542757 0
C 66.6661627593822 94.08396125682842 0
C 68.81162299707827 95.27276954428308 0
C 70.95935332483542 96.4587506798082 0
C 73.10879677958563 97.64363371755017 0
C 75.26258247252879 98.82836190614901 0
C 77.41816298329854 100.01288614194391 0
C 79.5746629500083 101.19982458870216 0
C 81.73374142246976 102.38898417779224 0
C 83.89120922779117 103.58112976239454 0
C 86.04963868056596 104.77719859759475 0
C 88.20786943484734 105.97660832161482 0
C 90.36381879719356 107.17987229675951 0
C 92.52018693960373 108.38609375494634 0
C 94.67514788343229 109.59517066394109 0
C 96.82923030524616 110.80722747363536 0
C 98.98195481480003 112.0215791560202 0
C 101.13322666302744 113.23800629305099 0
C 103.28430758861842 114.45614036049591 0
C 105.43389177003398 115.67577200420274 0
C 47.44411494155375 80.81579834850528 0
C 49.57217283226821 82.02353054142468 0
C 51.700892330445924 83.23046007154514 0
C 53.830678512862136 84.4354932445126 0
C 55.96177549625995 85.63913153762482 0
C 58.09362954157363 86.84038281597668 0
C 60.227790813158755 88.039902945454 0
C 62.36340034863813 89.23696896687217 0
C 64.50078042394838 90.43173225719335 0
C 66.6417679079136 91.62424149204325 0
C 68.78430222081727 92.81557356169102 0
C 70.92998262422364 94.0035860678102 0
C 73.07920078890245 95.19114437696643 0
C 75.22927349208865 96.37712354729175 0
C 77.38377706988636 97.56339517779372 0
C 79.53851403969804 98.7512900831046 0
C 81.69465859912717 99.93959160981063 0
C 83.85343068377854 101.13181755432701 0
C 86.00970360975757 102.32732530424718 0
C 88.16710184207399 103.52515417707939 0
C 90.32288014433793 104.72821201155956 0
C 92.47924632539271 105.9323629596267 0
C 94.63472099608072 107.14051814750087 0
C 96.78798645504804 108.3519912344003 0
C 98.94115543528522 109.56485229774201 0
C 101.09348293331449 110.78064517175785 0
C 103.24468186342033 111.99800697609808 0
C 105.3951735235943 113.21689439188678 0
C 107.544725570385 114.43750642646371 0
C 109.6935572694275 115.65889021320145 0
C 45.301494859374266 77.13504262367057 0
C 47.42840874052535 78.3447082565321 0
C 49.55621552968881 79.55327629747448 0
C 51.68422413902862 80.76028228078762 0
C 53.81353247624799 81.96644878339212 0
C 55.94388737127073 83.1708177875255 0
C 58.07537768051894 84.3736410880284 0
C 60.20850474711809 85.57478349499245 0
C 62.34310237965024 86.77318196417302 0
C 64.48012729126167 87.97071436732202 0
C 66.61913413462136 89.16543837707009 0
C 68.76063146148198 90.35778297952042 0
C 70.90463228176058 91.54905030323792 0
C 73.05132194025911 92.73769111808083 0
C 75.2008062677403 93.9261129378224 0
C 77.35221865778159 95.11415382258643 0
C 79.50590631959933 96.30178501298275 0
C 81.66074903842214 97.49244681590079 0
C 83.8167710655176 98.6834608036694 0
C 85.97332749851148 99.87823829841783 0
C 88.13051348191516 101.07554375451737 0
C 90.28562375644184 102.27606719385814 0
C 92.44199562814627 103.48030779950123 0
C 94.59650198796722 104.68728861577384 0
C 96.74965353444479 105.89703974193657 0
C 98.90374367217304 107.10955209174311 0
C 101.05505343281439 108.3241272479648 0
C 103.20655038195463 109.54078489446294 0
C 105.357890897656 110.75912347121698 0
C 107.50726030248829 111.97868167352229 0
C 109.65702331557156 113.19998550634213 0
C 111.80531784792805 114.42222718034542 0
C 113.95355108356412 115.64509654684846 0
C 43.16089997580594 73.45269034879846 0
C 45.287387577547854 74.66374481289677 0
C 47.41394471846321 75.87341330585312 0
C 49.54093862423193 77.08273742467038 0
C 51.66919351943779 78.29045113530555 0
C 53.797873873776666 79.49738052524957 0
C 55.92761544952974 80.7032491061774 0
C 58.059008482156955 81.90743789178433 0
C 60.19098674012365 83.10938003426483 0
C 62.32531814802118 84.3105069061042 0
C 64.46144501354117 85.50853687323199 0
C 66.5990162474709 86.70551897558794 0
C 68.73964327398232 87.90057683200125 0
C 70.88225556944346 89.09343288978151 0
C 73.02716816532562 90.28503290750456 0
C 75.17519267616126 91.4750382259598 0
C 77.32487619925921 92.66377661840264 0
C 79.47663834793298 93.85383049360729 0
C 81.63028989884064 95.04404730861586 0
C 83.78528751085325 96.23554195304378 0
C 85.94023980756737 97.42980610783073 0
C 88.09563460764119 98.626750754614 0
C 90.25044236992197 99.82711387977372 0
C 92.4056238278446 101.02954045186979 0
C 94.55997508702178 102.23541304079527 0
C 96.71332740760988 103.44435644802077 0
C 98.86606068027974 104.65544434889645 0
C 101.01896876463266 105.86896987365536 0
C 103.16990756439783 107.08472847689431 0
C 105.32060904555306 108.30207273184706 0
C 107.47054532723635 109.52151296315509 0
C 109.62052885150241 110.74169335735255 0
C 111.76950206507767 111.96338076693102 0
C 113.9176541343548 113.18622161182883 0
C 116.06581650184711 114.40948050938248 0
C 118.21327450076845 115.6338102451922 0
C 41.02216318466647 69.76914651104836 0
C 43.14789953351005 70.98090426130803 0
C 45.27388205483035 72.1923514295907 0
C 47.40026047479153 73.402684179796 0
C 49.527514964931974 74.61268759473292 0
C 51.65494523404335 75.82135030980456 0
C 53.783589672337484 77.0288483001376 0
C 55.913220210594524 78.2359215954644 0
C 58.04341496148105 79.4408357224419 0
C 60.175865653360916 80.64443025249113 0
C 62.30920599482783 81.84732951884723 0
C 64.44412749848546 83.04741619404723 0
C 66.58168049282826 84.24668441243297 0
C 68.72053167586667 85.4430378935961 0
C 70.86214566856978 86.63802912179182 0
C 73.00623423758209 87.83119286745753 0
C 75.15161192995531 89.02310563093602 0
C 77.30068579320728 90.21439975133474 0
C 79.45121125270104 91.40483622508354 0
C 81.60255983172647 92.59588872959343 0
C 83.75610692321955 93.78857946044316 0
C 85.91053741675809 94.98190178403445 0
C 88.06460178785628 96.17839847391234 0
C 90.2197438507609 97.37749112327333 0
C 92.37331725208088 98.57935744895312 0
C 94.52713429871672 99.78420701653927 0
C 96.67977240191195 100.99226836106769 0
C 98.83197099914277 102.20236201571461 0
C 100.9840221219451 103.41490599339026 0
C 103.1354088200803 104.62949961499238 0
C 105.28606229902634 105.84612467492181 0
C 107.43607131523603 107.06451085045772 0
C 109.58518443457737 108.2844000565405 0
C 111.73437994023287 109.50538037867632 0
C 113.88285228240767 110.72758496141702 0
C 116.03104995626623 111.95070543583205 0
C 118.1786612146445 113.17449642137335 0
C 120.32597931327885 114.39899474520618 0
C 122.47315186831658 115.6240513017666 0
C 38.884622206043204 66.08496521283948 0
C 41.00989790059827 67.29756264723551 0
C 43.13549374016092 68.50969525998252 0
C 45.261227789813134 69.72114723273009 0
C 47.38763611242113 70.9323808425832 0
C 49.51448664996835 72.14240978800618 0
C 51.64203045151384 73.35219299050895 0
C 53.77037689813578 74.56105583913218 0
C 55.89949968488275 75.7682343255162 0
C 58.03007930293132 76.97474528994047 0
C 60.1615373390902 78.18023417061482 0
C 62.29444470776923 79.38379952100523 0
C 64.42930720509844 80.58610541006477 0
C 66.56544167935236 81.78643233940542 0
C 68.70390115227076 82.98547919863586 0
C 70.84427499401308 84.18251247899171 0
C 72.98655846385257 85.37736451601846 0
C 75.13187499749176 86.57125303996172 0
C 77.2784523985879 87.76422755627934 0
C 79.42752638049518 88.95589803358544 0
C 81.57867582854546 90.14800309899684 0
C 83.72993072674454 91.34056636194185 0
C 85.88365638584571 92.53454413114923 0
C 88.03644034420991 93.73123511884394 0
C 90.19001763475333 94.92880171898184 0
C 92.34434469231019 96.13008730488397 0
C 94.49705349052059 97.33393872683271 0
C 96.64919328368671 98.54044981323462 0
C 98.80169418953578 99.7497930994727 0
C 100.95213501290928 100.96137614059245 0
C 103.1028240658899 102.17531660980826 0
C 105.25280618398095 103.39131162714125 0
C 107.40267151645993 104.60843970072906 0
C 109.55222827954064 105.82761578736712 0
C 111.70048671267668 107.04817990061974 0
C 113.84891953087156 108.2696257374016 0
C 115.9971695972203 109.49233423883457 0
C 118.14453849488777 110.71575829225735 0
C 120.29198463847338 111.9398985716308 0
C 122.43904424893636 113.16474506131414 0
C 124.58603502766263 114.38990168812232 0
C 126.73287900240807 115.61543848481531 0
C 36.747769406408764 62.40019204536533 0
C 38.872825332227634 63.61319102612299 0
C 40.9981035422716 64.82606213701997 0
C 43.123387898011195 66.03834042080537 0
C 45.24941406920972 67.25062589815504 0
C 47.375640964152275 68.46212153741881 0
C 49.502313367141845 69.67309785137284 0
C 51.629990538495214 70.88325268355791 0
C 53.75797881749426 72.09290933327243 0
C 55.88717122144301 73.30184493812932 0
C 58.01740869371882 74.50956275411387 0
C 60.14845517506552 75.71575253526309 0
C 62.28124759980706 76.92142468675898 0
C 64.41534198737675 78.12488650617905 0
C 66.55113280999714 79.32686690599554 0
C 68.68874099144949 80.52764506257817 0
C 70.82800758570535 81.72614288000207 0
C 72.96961224358888 82.9238555062953 0
C 75.11328481779992 84.11930547503192 0
C 77.2590196677122 85.31330862269365 0
C 79.40648711772727 86.50715612833858 0
C 81.55593990280964 87.69984869553058 0
C 83.70665761534246 88.89358227587337 0
C 85.85839894061758 90.08769694994737 0
C 88.01096997333458 91.28337308629162 0
C 90.16409318611942 92.48141553401717 0
C 92.31621280415034 93.68167338471032 0
C 94.46851083779742 94.884998943758 0
C 96.62101316307293 96.09021219074853 0
C 98.77177680848284 97.29823921606526 0
C 100.92232431949468 98.50939426373591 0
C 103.07270253167535 99.72190192782551 0
C 105.22239039015625 100.93656401986698 0
C 107.37114637988506 102.1537085455899 0
C 109.52059031973053 103.37149356820439 0
C 111.66856192364659 104.59143927272906 0
C 113.81721856363694 105.81236804301031 0
C 115.9641449850482 107.03434852275721 0
C 118.11154670013944 108.25756117247165 0
C 120.25912810866635 109.48126728231118 0
C 122.40577030029834 110.70561757841301 0
C 124.55293679585259 111.93066484279439 0
C 126.69938694122831 113.15602959398676 0
C 128.8460203707594 114.3816857676639 0
C 130.99253551679016 115.60761770653697 0
C 34.61132918328145 58.71505265233238 0
C 36.73628663318088 59.92833333838037 0
C 38.861313656760366 61.141547993736765 0
C 40.98643064480842 62.354472467995905 0
C 43.11209302645125 63.56730111737737 0
C 45.23785157427406 64.77999506967627 0
C 47.36413017089619 65.99201103933166 0
C 49.49106200324713 67.20404233093754 0
C 51.61824415625607 68.41495672172252 0
C 53.74668688587497 69.62537613302928 0
C 55.875726387308084 70.83511159138052 0
C 58.00533875496309 72.04404611522827 0
C 60.13691981695546 73.25159722161533 0
C 62.26893524580939 74.45859710039058 0
C 64.40262265289196 75.6637370251995 0
C 66.53825798027506 76.86713971126666 0
C 68.67461101832 78.06958293427545 0
C 70.81347849805108 79.2706465381926 0
C 72.95437948908015 80.46901535063081 0
C 75.0965509396579 81.66653126759421 0
C 77.2414110991248 82.86257699167719 0
C 79.38779384732945 84.05731760066487 0
C 81.53571931649573 85.2517860321754 0
C 83.68567886337158 86.44588130981906 0
C 85.83621734786276 87.64037578110873 0
C 87.9875147384543 88.83653558261675 0
C 90.1393122779292 90.03447120768062 0
C 92.29155118735486 91.2338023431506 0
C 94.4430725813142 92.43590033092819 0
C 96.59426676695249 93.6407332985652 0
C 98.74470925540804 94.8481117980283 0
C 100.8951310949812 96.05736361862533 0
C 103.04496892795795 97.269167947273 0
C 105.19390772830322 98.4831334580106 0
C 107.34235995754307 99.69891506961393 0
C 109.49128248897759 100.91627451614431 0
C 111.63859234585826 102.13530599021105 0
C 113.7860564304862 103.35560992674313 0
C 115.93297490502972 104.5773129792074 0
C 118.08016291579233 105.79956792652371 0
C 120.22719397782978 107.02294215066092 0
C 122.37343454360756 108.24712019564373 0
C 124.52005073530782 109.47161445917868 0
C 126.66687473945403 110.69679736896911 0
C 128.81295955384888 111.92233846412564 0
C 130.95935072063182 113.14806476626477 0
C 133.10576194252545 114.37404639584334 0
C 135.2522046647171 115.6000595642615 0
C 32.47497541993631 55.02985540302149 0
C 34.59991405066678 56.24321954187029 0
C 36.724878994409075 57.456640612638296 0
C 38.84990013876856 58.66990887097224 0
C 40.975311348847164 59.88347979144685 0
C 43.10085491037709 61.096658867657524 0
C 45.22675443333995 62.309646687078306 0
C 47.35322395869236 63.52258237464691 0
C 49.47998181265221 64.73471296479447 0
C 51.60757757952177 65.94696479975052 0
C 53.735744539971826 67.15845270410833 0
C 55.86458728700277 68.36882003105376 0
C 57.994724373721944 69.57917460063977 0
C 60.12550347746926 70.78805475846221 0
C 62.257648238291445 71.99591675425361 0
C 64.39124550052428 73.2024999639988 0
C 66.52565029502861 74.40775567552555 0
C 68.66223827027278 75.6119745526969 0
C 70.80017737420474 76.81430081422405 0
C 72.93983686889518 78.01470352514694 0
C 75.0820626231134 79.21340302833792 0
C 77.22509738736747 80.41131559040019 0
C 79.37063497242256 81.60758592722829 0
C 81.51780410576563 82.80312881316944 0
C 83.6658887335974 83.99804653585899 0
C 85.81588591676739 85.19368033181073 0
C 87.96672506923943 86.3894559992704 0
C 90.11725363749623 87.58688273678312 0
C 92.26833196319083 88.78684573726039 0
C 94.41981435978566 89.9875937400954 0
C 96.57024653586794 91.19142820039585 0
C 98.72102606061368 92.39758313992539 0
C 100.87015584391636 93.60621218776215 0
C 103.0192752981038 94.81708072847456 0
C 105.16781286944993 96.03020722212524 0
C 107.31614709959494 97.24478223300281 0
C 109.46387933008039 98.46144348266183 0
C 111.61093095477372 99.67976731169134 0
C 113.75778337694271 100.89930988983681 0
C 115.90446763298037 102.12022604521859 0
C 118.05054066102282 103.34225027241385 0
C 120.19682215430424 104.5649675966127 0
C 122.34299108516723 105.7886798457091 0
C 124.4886901094646 107.01303993339437 0
C 126.63477784573054 108.23774913751363 0
C 128.7808596912204 109.46308766523646 0
C 130.92673872190127 110.68869281365284 0
C 133.0728649970663 111.91449218501654 0
C 135.21923229566508 113.14045527247562 0
C 137.3654015644023 114.3664518790697 0
C 139.5118378300527 115.59244231163035 0
C 30.338307899327987 51.34470531088891 0
C 32.46339708526428 52.55798708136969 0
C 34.5883674716362 53.77140408262031 0
C 36.713450391011705 54.984882763250916 0
C 38.83879141652697 56.19873865576388 0
C 40.964171729618535 57.41245569720158 0
C 43.08989893276314 58.62604389448254 0
C 45.21610515252976 59.839759048421875 0
C 47.34244847180485 61.05306700610797 0
C 49.4695571508736 62.266358423929205 0
C 51.597267235028006 63.478963871337605 0
C 53.725269760514074 64.69112551945334 0
C 55.8544688200111 65.90330560229164 0
C 57.984315087255496 67.11413156538589 0
C 60.11524688848237 68.32403785553745 0
C 62.24717761349351 69.5336136082655 0
C 64.38014348791938 70.74129938159872 0
C 66.51487890457408 71.94809104931795 0
C 68.65064621054601 73.15364586889696 0
C 70.78803701971108 74.35721538932404 0
C 72.92715435803981 75.5600303327511 0
C 75.06791206178863 76.76049591979388 0
C 77.2108110699798 77.95940177721356 0
C 79.35498929533316 79.15759967656145 0
C 81.50093941911094 80.35398024079922 0
C 83.64875601561579 81.55032208091782 0
C 85.79717092169916 82.74638434313788 0
C 87.9470944759295 83.9425644991788 0
C 90.0970596114247 85.14056313763638 0
C 92.24753526951051 86.33889086044262 0
C 94.39799865657518 87.54021188670896 0
C 96.54812964102055 88.74320630213776 0
C 98.69803092710808 89.94783360134353 0
C 100.84688577162247 91.15622482196828 0
C 102.99578021287347 92.36565672930573 0
C 105.14414289182625 93.57730705129647 0
C 107.29099968202011 94.79195194800522 0
C 109.43855028267697 96.0071701827974 0
C 111.5849613173449 97.2247834268366 0
C 113.73179718178577 98.44356577243437 0
C 115.87719313093172 99.66371600893382 0
C 118.02329536612217 100.8850750804339 0
C 120.16842706652197 102.10752624809568 0
C 122.3138207565607 103.33054412002998 0
C 124.45954598784706 104.55448636111917 0
C 126.6046078253555 105.77901288387326 0
C 128.7498547706657 107.00391076167763 0
C 130.8952808882765 108.22938666752091 0
C 133.04104670574353 109.45498658749153 0
C 135.18664247827266 110.68081193849747 0
C 137.33260667762423 111.90679715440649 0
C 139.47852732707474 113.13271696744654 0
C 141.6248118221603 114.35858630400581 0
C 143.77142839091852 115.58426144513986 0
C 28.20104725343186 47.65996035179263 0
C 30.326339788521782 48.87291192929564 0
C 32.45156843630997 50.08615682822509 0
C 34.57673414474632 51.29957766577457 0
C 36.70201958230607 52.51356471527448 0
C 38.8275342393514 53.72755132705658 0
C 40.95309178231889 54.941641990641514 0
C 43.07924535774685 56.15589123973394 0
C 45.20535755901084 57.37000408076391 0
C 47.33206925239018 58.58426525893518 0
C 49.45943636170946 59.79796701563959 0
C 51.58689346189138 61.01144709591628 0
C 53.71547061011713 62.225006488568866 0
C 55.84463022970324 63.437344233303804 0
C 57.974405287884004 64.64956226306369 0
C 60.10556210465097 65.86060154676068 0
C 62.23706823276538 67.07096258935283 0
C 64.37005063955343 68.28071309009395 0
C 66.50428614937842 69.48877820803331 0
C 68.63965120502557 70.69533292959144 0
C 70.77671554238809 71.90107779268394 0
C 72.91538243103821 73.10437751789719 0
C 75.05545545579842 74.30679286574278 0
C 77.19736572299027 75.50755997456743 0
C 79.34070845768724 76.70661588080256 0
C 81.48580164777837 77.90507629418697 0
C 83.632509923755 79.1020830643512 0
C 85.7803007574804 80.29886499954148 0
C 87.92904426814327 81.49589673932928 0
C 90.07867565569116 82.69326201196127 0
C 92.2286414708005 83.89202442017645 0
C 94.37824753041238 85.0923506966515 0
C 96.52805060188513 86.29463392673611 0
C 98.67756410765689 87.49904766612575 0
C 100.826014431781 88.70564241245289 0
C 102.97409476585923 89.91487938260374 0
C 105.12215439160012 91.12553684461477 0
C 107.26880704598491 92.33857272921894 0
C 109.41582094626305 93.55348974838105 0
C 111.5612557486926 94.7702052626291 0
C 113.70710916744977 95.9881848259779 0
C 115.85182426103827 97.20805914388231 0
C 117.99742187651938 98.42833338488818 0
C 120.1420202978473 99.65024479079206 0
C 122.28659332481969 100.87297270550607 0
C 124.43126954359367 102.09621012960545 0
C 126.57589568950912 103.32043149496867 0
C 128.72102975264752 104.5449782865818 0
C 130.86524401850738 105.7700472931229 0
C 133.0100768262653 106.99556332857004 0
C 135.15539582524215 108.22119694902823 0
C 137.30041531043966 109.4469997411717 0
C 139.4458910052798 110.67290564912685 0
C 141.59173077110944 111.89877547055544 0
C 143.73775786142286 113.12444723020994 0
C 145.88416607178195 114.34995829346322 0
C 148.03086419414043 115.57514752381229 0
C 26.062631248963545 43.97573834036719 0
C 28.188352175589415 45.18807562634388 0
C 30.313911610934586 46.400964876231875 0
C 32.43933572399838 47.614211379240636 0
C 34.56495641317108 48.82815801733232 0
C 36.69050987173534 50.042246667360224 0
C 38.81614398971474 51.25650568353813 0
C 40.94216019783669 52.471332200344655 0
C 43.068286051515926 53.68587400070015 0
C 45.19497265646016 54.900657857608756 0
C 47.321904351891476 56.11559073745898 0
C 49.449127834070566 57.329809046862216 0
C 51.577441716955676 58.54431957116987 0
C 53.705793171687276 59.75857291261918 0
C 55.834955085168 60.97207006101867 0
C 57.965243152916436 62.185028754541854 0
C 60.09574930878348 63.3974359275898 0
C 62.22781895038354 64.60884060741095 0
C 64.36043611458368 65.81979260224685 0
C 66.49425873852852 67.0289322312735 0
C 68.62957963542759 68.23746936281805 0
C 70.76606235369199 69.44412579693403 0
C 72.90403424772339 70.64947430748673 0
C 75.04371409169035 71.85326145331605 0
C 77.18468236732161 73.05515108527725 0
C 79.3275020350707 74.25613665574265 0
C 81.47189383314993 75.45537457259158 0
C 83.61743289416633 76.65366242634683 0
C 85.76466588062387 77.85137095866443 0
C 87.91267395782323 79.04873404729962 0
C 90.06133900084819 80.24656867573475 0
C 92.21084374660389 81.44517738792277 0
C 94.35999921304085 82.64515605016621 0
C 96.50914268105927 83.84683345674969 0
C 98.65828381336888 85.0505075210323 0
C 100.8065764787673 86.25627475477874 0
C 102.95430878299597 87.46412603485784 0
C 105.10139755203797 88.67442559036951 0
C 107.24772667144032 89.8866111894254 0
C 109.3938293683755 91.10045877228862 0
C 111.53952599846181 92.31618136285468 0
C 113.68477122794691 93.53329855991176 0
C 115.82932926530506 94.75208538615064 0
C 117.9739144094713 95.97211215099072 0
C 120.11760987194702 97.19322010203645 0
C 122.26164688451611 98.41536709750379 0
C 124.40593454723022 99.63823496329356 0
C 126.54921799948514 100.86186724844573 0
C 128.69340690829708 102.08616876948632 0
C 130.83691266113595 103.31098403155947 0
C 132.9809522927162 104.5360575456303 0
C 135.12571825000757 105.76148093513079 0
C 137.26971809146093 106.98717239009555 0
C 139.41437984059706 108.21296819324705 0
C 141.55980336125606 109.43864690246517 0
C 143.70488987279722 110.66441082645099 0
C 145.8505535356409 111.88997759384303 0
C 147.99670655425365 113.11519323353856 0
C 150.14316869245374 114.34025213146639 0
C 152.29018038664728 115.56459318818838 0
C 23.922888148330074 40.29248450026881 0
C 26.049177934015567 41.50385100446554 0
C 28.175200986489955 42.71636639637765 0
C 30.30093987798198 43.92895195737032 0
C 32.4268674901761 45.14267609811444 0
C 34.55255273843336 46.35663382186835 0
C 36.67852595584923 47.57099529317886 0
C 38.804666628249095 48.786019872672874 0
C 40.93092653821852 50.00091183421379 0
C 43.05750660521924 51.21630926462083 0
C 45.18439818070707 52.43177791363345 0
C 47.31149582000843 53.64679235780754 0
C 49.43940747110537 54.862537097176 0
C 51.567544263081906 56.07759343474759 0
C 53.69634796597623 57.2922619288184 0
C 55.82580652823978 58.50714506508181 0
C 57.955771940068466 59.72082319362896 0
C 60.086757524835996 60.9344012122517 0
C 62.21854795273791 62.1471205733268 0
C 64.35116112466034 63.35845345457614 0
C 66.48530528602623 64.56915500234624 0
C 68.62003078467635 65.77876716436134 0
C 70.75636960689924 66.98669470089943 0
C 72.89378480216457 68.19389014232733 0
C 75.03264921036238 69.39881505015325 0
C 77.17358192749512 70.60221764650845 0
C 79.31524200370437 71.8048240570202 0
C 81.4587998966634 73.00523144086279 0
C 83.60386940198717 74.20491487989754 0
C 85.74993940035809 75.40345769427022 0
C 87.89743007479144 76.60152179883961 0
C 90.04550072112606 77.79989853028579 0
C 92.1940060964605 78.99827854687967 0
C 94.342904069328 80.19844190181655 0
C 96.49171796599137 81.39957968784749 0
C 98.64028134328542 82.60213149901567 0
C 100.78800628039073 83.80779320386426 0
C 102.93596183311747 85.01419074763906 0
C 105.0825850588258 86.22335656255179 0
C 107.22923304225573 87.43443706150538 0
C 109.37450845814624 88.64751820598394 0
C 111.519679827287 89.86228623791153 0
C 113.6639189957954 91.07908001879458 0
C 115.80786591613607 92.29691930746927 0
C 117.95162940643169 93.51625375038056 0
C 120.0953950774355 94.73664149904448 0
C 122.23854216979018 95.95801017595038 0
C 124.38180383110833 97.18046195698582 0
C 126.52456039425296 98.40372781271283 0
C 128.66753942177888 99.62739677485044 0
C 130.81080706181746 100.8518687448068 0
C 132.95405601306055 102.07664429118542 0
C 135.09701026165405 103.30178137480031 0
C 137.24076001657644 104.5273069453869 0
C 139.38427034987356 105.75283410547952 0
C 141.52834936783862 106.97849982483683 0
C 143.673183409859 108.20410992496255 0
C 145.81788836861924 109.4295948295658 0
C 147.96306660301912 110.65504951934929 0
C 150.1089798161754 111.87993631045313 0
C 152.255060201929 113.10459906507228 0
C 154.4020077981838 114.32876350307973 0
C 156.54933302430484 115.55199951117407 0
C 21.78116573422218 36.61009660944408 0
C 23.907932938788747 37.82048096588101 0
C 26.034540774078 39.03188016863704 0
C 28.161203075996195 40.24409888916151 0
C 30.287276340361295 41.457255438394924 0
C 32.41373899907042 42.67110649814732 0
C 34.539959571201024 43.88525431223696 0
C 36.66646637829117 45.1003506264282 0
C 38.792738316165426 46.31541436297555 0
C 40.91956701711467 47.53107901231887 0
C 43.0466340206785 48.74695941068978 0
C 45.17363102652627 49.96269934865343 0
C 47.30147381809322 51.17905163537866 0
C 49.429479687256546 52.39498525864185 0
C 51.557904099552424 53.6108807383246 0
C 53.68710411171045 54.826683590532674 0
C 55.816525292534465 56.04187775545964 0
C 57.94684810190646 57.25710364635966 0
C 60.077841427192176 58.47145766814167 0
C 62.20954860217774 59.68477724768379 0
C 64.3423917799956 60.898005224279224 0
C 66.47604337555485 62.10962676375039 0
C 68.61080059034346 63.32032014732096 0
C 70.74676288759031 64.52998600638945 0
C 72.88396213854118 65.73758740279389 0
C 75.02249902169773 66.94454086785252 0
C 77.16242815388256 68.14959118345416 0
C 79.30384641222037 69.35281013550482 0
C 81.44677850434049 70.55498740064253 0
C 83.59101782326728 71.75547396239642 0
C 85.73660488580849 72.95511960561097 0
C 87.88308755448568 74.1542371630873 0
C 90.03061259165736 75.3526426293243 0
C 92.17889993823144 76.55162158614706 0
C 94.3270585715314 77.75125859167962 0
C 96.47568523444468 78.9519788696619 0
C 98.62401705609044 80.15431843527061 0
C 100.77146113673912 81.35843647377607 0
C 102.91903699046485 82.5645930936227 0
C 105.0651230536106 83.77315330137696 0
C 107.21123734270346 84.98289801905221 0
C 109.35610412070942 86.19563436120295 0
C 111.50141395599299 87.40895454406639 0
C 113.64508883495067 88.62477094671536 0