ITEM: TIMESTEP
0
ITEM: NUMBER OF ATOMS
1876
ITEM: BOX BOUNDS xy xz yz pp pp pp 
0.000 79.896 26.632 
0.000 46.128 0.000 
-20.000 20.000 0.000 
ITEM: ATOMS type x y z
C 26.553971882904765 43.66976886679627 0
C 28.722043594237565 44.831320693380626 0
C 30.89009768611071 45.99460780167555 0
C 24.314384530222934 40.0474527075777 0
C 26.478633918609262 41.21131588825196 0
C 28.645323754490523 42.37376975091774 0
C 30.813433624442848 43.536881617138285 0
C 32.981458261082686 44.703098939288644 0
C 35.14848083925649 45.873611991081425 0
C 22.0890807592556 36.417125854246684 0
C 24.246872813575983 37.586587612473735 0
C 26.408040227312476 38.752881142381554 0
C 28.572719938511074 39.91682313467211 0
C 30.739288548625773 41.080682672074815 0
C 32.90740518543752 42.24649543394878 0
C 35.07534115775335 43.416213732451446 0
C 37.2420680156969 44.59069497427954 0
C 39.40713018536022 45.770197190151734 0
C 19.87821956710901 32.77832311270393 0
C 22.030028341567842 33.953696996266075 0
C 24.185065604497524 35.12568560734593 0
C 26.343396370383672 36.294157749420556 0
C 28.50499047890245 37.460268517088494 0
C 30.669929955322733 38.62544971087188 0
C 32.83647452846546 39.79183215503213 0
C 35.00418926693784 40.961036737939324 0
C 37.171533635126316 42.13456297033772 0
C 39.33792105959015 43.31258937446001 0
C 41.50284153901994 44.49523699043624 0
C 43.66607005071723 45.681774939283855 0
C 17.677856483211542 29.132404419379927 0
C 19.825739378294053 30.312655635139343 0
C 21.975704768556234 31.489836651906508 0
C 24.12825159545923 32.66420187810216 0
C 26.284125715642187 33.83532318603099 0
C 28.443215226089052 35.003781452956126 0
C 30.605527887817512 36.17096059574293 0
C 32.77060870086023 37.33826451709892 0
C 34.93691978594208 38.507612629456005 0
C 37.10398728454522 39.68028875971731 0
C 39.27052196520379 40.85726807640355 0
C 41.43607891982887 42.03846255902118 0
C 43.600312493766786 43.223852617514545 0
C 45.763253275179586 44.412490666941544 0
C 47.92503331667026 45.60372505022908 0
C 15.484126109729974 25.482244240544784 0
C 17.629701370625074 26.6653611383344 0
C 19.77643758384365 27.846824283437257 0
C 21.924987736690472 29.026067991762808 0
C 24.07593004562182 30.202479728730182 0
C 26.229584002530395 31.376301815925814 0
C 28.38659861176031 32.547387233620306 0
C 30.54668962999012 33.71675524282471 0
C 32.709524611323744 34.88555591148641 0
C 34.874427095626956 36.05540368423608 0
C 37.04030112300184 37.227708375993984 0
C 39.20635777534497 38.40364875448927 0
C 41.37177410770792 39.58363642745713 0
C 43.536180421138134 40.7674975407735 0
C 45.69949092094014 41.955015937374704 0
C 47.861717191278935 43.14526909652331 0
C 50.023073420535205 44.337615210292604 0
C 52.18388390225521 45.53117781375776 0
C 13.292879382898091 21.830009120204775 0
C 15.437730925204903 23.014353707312353 0
C 17.58298477349871 24.198277571336277 0
C 19.729247690372045 25.380994292291273 0
C 21.876970391661615 26.562049124474463 0
C 24.02675915729052 27.740853021083396 0
C 26.179079290813135 28.917083284748134 0
C 28.334136822408652 30.09094901355759 0
C 30.492384627425324 31.262610618915133 0
C 32.65327706831545 32.43324303300073 0
C 34.81639896648101 33.604019244525766 0
C 36.98094657858561 34.77643061600227 0
C 39.14592631720602 35.95157325932854 0
C 41.31076887709308 37.130332066927 0
C 43.47476738297215 38.31283122721153 0
C 45.63778209386599 39.498789039361476 0
C 47.799850473607435 40.6878571478421 0
C 49.961110129523725 41.87915120157806 0
C 52.12167374926541 43.07211817854402 0
C 54.28200846652953 44.26585594750184 0
C 56.44240623525683 45.45961939851823 0
C 11.100610633807918 18.178037741677866 0
C 13.246151535024369 19.361894104489032 0
C 15.391360744480039 20.54656017316996 0
C 17.53686400613436 21.73127656410617 0
C 19.683107819204526 22.915367008088797 0
C 21.830611071758995 24.098149805822114 0
C 23.979808652449726 25.279179588281682 0
C 26.13123996679787 26.457849336765758 0
C 28.285161563808398 27.634222194808196 0
C 30.44171741443876 28.80845340188042 0
C 32.6010510920838 29.98103237025347 0
C 34.76249684648669 31.15309966352002 0
C 36.925592164033226 32.32585874218974 0
C 39.08950109107898 33.500595222855985 0
C 41.25327670221981 34.67821024786422 0
C 43.41665968334883 35.85928817093946 0
C 45.578995707493796 37.04376051892132 0
C 47.74048100844175 38.2312275730698 0
C 49.90110932279532 39.42131924812322 0
C 52.06088396035162 40.61328467996375 0
C 54.22035855949645 41.80643651578029 0
C 56.37990875727834 42.9999356169669 0
C 58.539772801343624 44.1930703445095 0
C 60.700520239538804 45.384841905619446 0
C 8.903597029198385 14.528622430461787 0
C 11.051369647331073 15.710255146954712 0
C 13.198029052550467 16.893943011021694 0
C 15.344216882423332 18.078968426193352 0
C 17.49040344910081 19.264528971540802 0
C 19.63714336774324 20.449912754934083 0
C 21.784890764788827 21.634398908374546 0
C 23.934017503337927 22.817465688054746 0
C 26.085020334737266 23.99858680398013 0
C 28.238217273377472 25.1774138269414 0
C 30.393810674982483 26.35399019788132 0
C 32.551753293010506 27.528718334121375 0
C 34.7119472732808 28.702252745063312 0
C 36.87370067125277 29.875707549800985 0
C 39.03631071058751 31.050367687437916 0
C 41.19937832854448 32.22705322152309 0
C 43.361700123565846 33.406719325931846 0
C 45.52325231677853 34.58969293697853 0
C 47.683946461469674 35.77550126992971 0
C 49.843577796059904 36.96404759275579 0
C 52.00262712118541 38.15467077647169 0
C 54.16080196753559 39.34682793895871 0
C 56.31904080207225 40.53972349759982 0
C 58.47733476878967 41.732606793411044 0
C 60.63632862292528 42.92463923735167 0
C 62.79644157900182 44.114833565592 0
C 64.95795084353118 45.30227419310474 0
C 6.697609150959548 10.884480302332946 0
C 8.849449646653879 12.06198478476933 0
C 10.999367130228666 13.242755558967575 0
C 13.147707228016017 14.426283469698012 0
C 15.295357976802254 15.61166854947931 0
C 17.44278064239777 16.798071248866474 0
C 19.590436034658666 17.984666423429157 0
C 21.738774618306135 19.17085859230457 0
C 23.888340287366866 20.355827241967898 0
C 26.03939429632257 21.539152885320867 0
C 28.192353540825057 22.72040329086578 0
C 30.34743908564794 23.899241072831703 0
C 32.50455474640783 25.07613704408718 0
C 34.6636895804561 26.251336230897493 0
C 36.82444410225654 27.425738595076066 0
C 38.98618823560545 28.60042145361601 0
C 41.148135018352214 29.776630773398484 0
C 43.30980619707129 30.955062675974357 0
C 45.470700915210045 32.13618455240786 0
C 47.63036595690061 33.320475716231236 0
C 49.78924962593637 34.50717005435478 0
C 51.946850295675766 35.69636464759722 0
C 54.1040543608009 36.887148582449555 0
C 56.260472549353196 38.07907296786149 0
C 58.417019605160604 39.27134380587018 0
C 60.5740085948279 40.463098065966264 0
C 62.73184268965137 41.6535291705139 0
C 64.89102357869267 42.84149628960061 0
C 67.05185650682415 44.02640305658512 0
C 69.21480907782127 45.20702881754549 0
C 4.478666145703807 7.248177305049024 0
C 6.636394940732556 8.419654627341584 0
C 8.791219282882178 9.595797986482008 0
C 10.943692801122069 10.775910150330201 0
C 13.094500710586008 11.95911060063911 0
C 15.24398829640715 13.144790067346594 0
C 17.393127607795957 14.331952152956909 0
C 19.542140883973087 15.519756380362512 0
C 21.691676205203944 16.707351619528538 0
C 23.841985491154396 17.89421827250877 0
C 25.99359952501672 19.079533593626994 0
C 28.146687382853358 20.263004862280166 0
C 30.30152464714223 21.4443469412669 0
C 32.458371434249855 22.623179097898422 0
C 34.61689014883709 23.80018544379372 0
C 36.77696299341879 24.975709513558478 0
C 38.93800237477808 26.150800568796384 0
C 41.0993791069179 27.326463715632276 0
C 43.26038276123685 28.503873811451893 0
C 45.420738198645196 29.68343479010132 0
C 47.57973984080586 30.865779123094253 0
C 49.73742623490247 32.050927166511634 0
C 51.89422966489971 33.23816885008168 0
C 54.04983722791254 34.42752213329657 0
C 56.20482978907232 35.61814669387376 0
C 58.35956835719601 36.809360221520365 0
C 60.51455468189895 38.00052701650862 0
C 62.66983204344958 39.19073845097029 0
C 64.82624088467455 40.37905793296503 0
C 66.98429128317088 41.5644920869727 0
C 69.14417959085958 42.746118623211984 0
C 71.30661757814701 43.92300436876026 0
C 73.47136646982437 45.094934119155525 0
C 2.244788461511858 3.620772259913508 0
C 4.409026677870739 4.786116771450826 0
C 6.570148920873097 5.956129315359301 0
C 8.72838042327389 7.130603155357007 0
C 10.884018494638493 8.309902049589718 0
C 13.037418559619375 9.492702569631648 0
C 15.189697229786198 10.67855383198744 0
C 17.34071741564106 11.866336170112648 0
C 19.491672285085766 13.055155322538093 0
C 21.642556342624108 14.244207243475314 0
C 23.793954142787896 15.43272635080979 0
C 25.946490442691037 16.620039299770227 0
C 28.10008818190732 17.80560643870778 0
C 30.2553802201348 18.98892030244547 0
C 32.41212257138057 20.17003352908419 0
C 34.5704418600132 21.34877801976789 0
C 36.73027468819392 22.52554985114221 0
C 38.891005566947946 23.701161158550715 0
C 41.05201447345037 24.876689723050486 0
C 43.212761672372025 26.05301461391061 0
C 45.37268695069184 27.231182079582847 0
C 47.531226008035716 28.41173267307241 0
C 49.68837497432282 29.594775878782624 0
C 51.844013642158195 30.780371804333488 0
C 53.99865667130078 31.967779446432722 0
C 56.152354654217966 33.156844544091776 0
C 58.30513907044721 34.34690339967884 0
C 60.45793053286538 35.53709561041539 0
C 62.61093442460796 36.72673668626988 0
C 64.76465658068031 37.91494959313546 0
C 66.91964513113194 39.10075025721382 0
C 69.07635604002809 40.28301611258067 0
C 71.23528885348802 41.46128934236719 0
C 73.397104022057 42.63439569716128 0
C 75.56150342071666 43.80259599055889 0
C 77.72822647928093 44.966675926604644 0
C -2.5707775377116357e-06 -4.653681272761482e-06 0
C 2.1680509300928903 1.16151443429865 0
C 4.334795941413774 2.3255606338787427 0
C 6.499249642349148 3.4936769758444735 0
C 8.660901931614168 4.667071245766325 0
C 10.82002279937129 5.845061927637672 0
C 12.97664177242644 7.027448006929929 0
C 15.131682266803251 8.213266292175907 0
C 17.28538405297457 9.401408352586307 0
C 19.438396561999944 10.591055996550068 0
C 21.591122962418794 11.781275454247282 0
C 23.743995468846826 12.971301377201861 0
C 25.897529788720576 14.160380005120844 0
C 28.052219085698592 15.34790032316753 0
C 30.20803709040615 16.533252406505405 0
C 32.36506811973616 17.716416910803915 0
C 34.52366699526323 18.896952953667462 0
C 36.683472177950684 20.07513102307912 0
C 38.84426075943288 21.251495853326116 0
C 41.00529364438763 22.426980413349728 0
C 43.16596886029043 23.60266743757601 0
C 45.32579530008281 24.779385627100876 0
C 47.48414078605101 25.958200898656656 0
C 49.64101215636273 27.13914686839733 0
C 51.79620334698299 28.322536008124647 0
C 53.949874841804885 29.508147536498985 0
C 56.10219025229001 30.695460145098036 0
C 58.253700345309376 31.883999253555388 0
C 60.404712855156106 33.073011064987234 0
C 62.55550008211109 34.26184344531375 0
C 64.70675521870677 35.44962802191972 0
C 66.85870186747945 36.635414986756516 0
C 69.01232042466765 37.81835166737774 0
C 71.16798097635582 38.99752742604607 0
C 73.32601279686777 40.17224728858305 0
C 75.4873650999948 41.34202048882273 0
C 77.65146531917205 42.50740636303763 0
C 6.424925030260683 1.0333024624392746 0
C 8.589713507547867 2.2051396675795316 0
C 10.75203578338881 3.3821829535894348 0
C 12.91214053602505 4.563644182717871 0
C 15.06999940542967 5.749104365688868 0
C 17.226533976110836 6.937437068747964 0
C 19.381872391471802 8.127618877353786 0
C 21.53654678733309 9.318793486233568 0
C 23.69136978043055 10.510056893825586 0
C 25.846448013369532 11.700628288069522 0
C 28.002212137405714 12.889857603653786 0
C 30.158774588012903 14.07736369580278 0
C 32.316449084080276 15.262374955902972 0
C 34.47560297466252 16.44469379538867 0
C 36.6357977092975 17.624387911119182 0
C 38.7969344488865 18.801629323403436 0
C 40.95829166692054 19.97737793305256 0
C 43.11933445945705 21.152445349423264 0
C 45.27943642444135 22.327956293977902 0
C 47.43803525802859 23.504846035615547 0
C 49.59481889525387 24.68383909963549 0
C 51.74962867779895 25.865132550956154 0
C 53.90277022333441 27.048590735404716 0
C 56.054385590494356 28.233963657118704 0
C 58.2046601771209 29.420758398685614 0
C 60.354163881297005 30.608452954581974 0
C 62.503176813716415 31.79623352388336 0
C 64.65223199633203 32.98339759361263 0
C 66.8019081426161 34.16906024708115 0
C 68.95252925116854 35.352336101754744 0
C 71.10506437143694 36.53235718091581 0
C 73.2598760984821 37.70840894396649 0
C 75.41748371559143 38.88013159837853 0
C 10.681443752623492 0.9212098985069739 0
C 12.844355006401441 2.1018761981921417 0
C 15.005369139557482 3.286520626717861 0
C 17.164373950033564 4.47461586800614 0
C 19.322301442161503 5.665031029873758 0
C 21.4792563402361 6.856804581674572 0
C 23.63583701320681 8.049020847088888 0
C 25.79238747269872 9.240977896450126 0
C 27.949255507871012 10.43184647212761 0
C 30.107202331457973 11.62086195110039 0
C 32.26582843170908 12.807807769045908 0
C 34.425501414833995 13.991943756322941 0
C 36.586506481897025 15.173112301014449 0
C 38.748114798059 16.351574743094464 0
C 40.91013497371257 17.527697769829246 0
C 43.07189535606551 18.70242448693729 0
C 45.232608279323614 19.87682642351069 0
C 47.39175802794399 21.05204966848746 0
C 49.54897071835269 22.228803209812774 0
C 51.703957845073155 23.40784026399547 0
C 53.85686568402774 24.589067436034885 0
C 56.00798037721142 25.77236816429119 0
C 58.15750637539704 26.95738745242528 0
C 60.305889667571336 28.14348378875149 0
C 62.45358656686165 29.330136818387402 0
C 64.60095226523808 30.516531647499278 0
C 66.74854662111453 31.701901977517533 0
C 68.89700112503607 32.885384060237634 0
C 71.04676122817636 34.066277434397534 0
C 73.1987254091343 35.24364367933196 0
C 14.938287830922633 0.8259026534405655 0
C 17.099904208247803 2.013272845061914 0
C 19.259916828600446 3.203526665173315 0
C 21.418935425985694 4.395517293510916 0
C 23.57726147466239 5.588413686647029 0
C 25.735487358122853 6.781270913739016 0
C 27.893836304882107 7.9734598819851845 0
C 30.052669734521555 9.164088749284595 0
C 32.21237280089653 10.352624501609345 0
C 34.37289452179772 11.538615417752608 0
C 36.534520587954866 12.721391816570083 0
C 38.69709735610299 13.901054836272568 0
C 40.859895996071415 15.077873690599823 0
C 43.02263164880534 16.252454077169322 0
C 45.18445665178436 17.425910793070937 0
C 47.34453614807451 18.599486143441965 0
C 49.502546479924405 19.77417397642594 0
C 51.658127037211024 20.95077175879184 0
C 53.81128745088196 22.129665214209318 0
C 55.962304548198816 23.310691056459167 0
C 58.11145146400533 24.493757527592734 0
C 60.25918478092154 25.678243481109742 0
C 62.40588986208388 26.863603717464134 0
C 64.55210175783506 28.049179689591014 0
C 66.6982757704776 29.23421603139605 0
C 68.8449040477577 30.41786925908242 0
C 70.9927537672623 31.599443303576752 0
C 19.195816713846213 0.743221569997109 0
C 21.35646822121968 1.935084042152707 0
C 23.516381599591472 3.1281929791656866 0
C 25.675882398442763 4.321720039526623 0
C 27.835359495461102 5.514844809793655 0
C 29.995302369889917 6.7068579865752325 0
C 32.1558310220485 7.896875118500022 0
C 34.31730057813318 9.084417554527509 0
C 36.47970354268309 10.268903211262478 0
C 38.64301285011847 11.449896584617523 0
C 40.80692115376428 12.627604547420056 0
C 42.97072314370121 13.802318061804327 0
C 45.13378407793362 14.975093942616647 0
C 47.295341480097406 16.147106684260336 0
C 49.45451604143817 17.31975722349951 0
C 51.61116616990305 18.493894557881102 0
C 53.76505025516823 19.670288687236972 0
C 55.91642819017272 20.849034793182845 0
C 58.06568673687371 22.029923404814145 0
C 60.21316879997256 23.212755522621066 0
C 62.359405531562125 24.39684424771261 0
C 64.50491413224971 25.581554724412808 0
C 66.65016365515132 26.76621610610859 0
C 68.79566998802072 27.95011129270135 0
C 23.453854907912515 0.6685324731526131 0
C 25.614315776749255 1.8622791478259892 0
C 27.774636431724563 3.056024238696341 0
C 29.93523332509417 4.248964659102337 0
C 32.09645818501542 5.440369595866683 0
C 34.2584455738743 6.629342901968486 0
C 36.42148747148371 7.815382273374612 0
C 38.58555282093012 8.997835317313033 0
C 40.75034265121814 10.176506564267331 0
C 42.91537815199194 11.351757374708626 0
C 45.07982284867232 12.524097693246036 0
C 47.24298321463659 13.694868461452538 0
C 49.40394564146559 14.865457710761618 0
C 51.56200096207328 16.037259727850767 0
C 53.71721512454542 17.210979064168402 0
C 55.86948595276608 18.387250190815777 0
C 58.01926158510199 19.566110821237796 0
C 60.16705630205327 20.74707680739208 0
C 62.31327784438806 21.929869208402067 0
C 64.45857030116605 23.113769728478136 0
C 66.60339760429584 24.298133060188203 0
C 27.71240424841689 0.5969841449012379 0
C 29.873218365583348 1.7905266656377967 0
C 32.03459623349679 2.98284727124867 0
C 34.19683199630078 4.173149953663948 0
C 36.360021068985674 5.36056409476247 0
C 38.52442112780073 6.544548346942126 0
C 40.68988962103178 7.724455047437368 0
C 42.855969754732776 8.900312074050724 0
C 45.02191607116597 10.072717015259947 0
C 47.18674732799239 11.242514404083275 0
C 49.34959310117848 12.411348084773623 0
C 51.50971869294757 13.580703156791293 0
C 53.66656832708847 14.7519344464104 0
C 55.82039598665854 15.925520192708294 0
C 57.9712686593706 17.10222616923175 0
C 60.119815821975735 18.281260029066164 0
C 62.26661568146917 19.46277637559695 0
C 64.41213401867556 20.645901159192114 0
C 31.971247341444403 0.5243882715914262 0
C 34.13296109232433 1.7156544690754503 0
C 36.295929614724464 2.9043137102217504 0
C 38.46025458301254 4.089508229831639 0
C 40.62565964017704 5.270946592283515 0
C 42.79239959349206 6.447717493901598 0
C 44.959085330732535 7.620576407183372 0
C 47.125793193649635 8.789827838389114 0
C 49.290555631226795 9.957160683353846 0
C 51.45306180512955 11.124306464223965 0
C 53.61218107781032 12.292812208257908 0
C 55.767955243955775 13.464090223292674 0
C 57.920654213551344 14.638176911311254 0
C 60.07055101949173 15.815662127666124 0
C 62.21837966870665 16.995637439927872 0
C 36.2301671741858 0.44637144593385136 0
C 38.39346328835173 1.6328824098605723 0
C 40.5582173210638 2.815531932965831 0
C 42.72468302478639 3.993665230230539 0
C 44.891955155103915 5.167108764619094 0
C 47.05975124802659 6.336293384414679 0
C 49.22654796805144 7.502648555268177 0
C 51.391249640124116 8.66796146399597 0
C 53.55296861660917 9.833954012188048 0
C 55.7112364161438 11.002489506781119 0
C 57.86611635533199 12.174350782673184 0
C 60.01823923360585 13.349842442257957 0
C 40.489158665472516 0.35792851606724657 0
C 42.65414896801507 1.5374364965479954 0
C 44.821030659104224 2.711944854602331 0
C 46.989026659287234 3.8815096859431097 0
C 49.15683639863826 5.047503968485087 0
C 51.32371837215748 6.211323908272615 0
C 53.488009803651316 7.375265221972316 0
C 55.64947056274683 8.541415774046264 0
C 57.807202396750135 9.711054350300982 0
C 44.74788563550271 0.2544374869091531 0
C 46.914729184024594 1.4252283310470386 0
C 49.08290187241741 2.5912082584316316 0
C 51.250978705503876 3.7544066288149267 0
C 53.417685003586044 4.91679159380097 0
C 55.581860546696554 6.080875773257435 0
C 49.00613454836204 0.13369293093985984 0
C 51.17421671409961 1.296843198169761 0
C 53.34231876431394 2.458357858111043 0
C 27.302588570143815 44.876332940505726 0
C 29.47079674130074 46.038126411370826 0
C 25.059548113868583 41.25554705180004 0
C 27.22560776504993 42.418247596517276 0
C 29.393406747958227 43.580309438950366 0
C 31.561581474085333 44.74419590488225 0
C 33.729071078986394 45.91193702378703 0
C 22.829158949527574 37.62832251159623 0
C 24.98930438791484 38.7958605644203 0
C 27.152416403515904 39.960282503872136 0
C 29.318534144766893 41.1234435651536 0
C 31.486232948728613 42.28759885725782 0
C 33.65446661854428 43.45458070685829 0
C 35.82173663031189 44.62627647108373 0
C 37.987600888119744 45.80272031779796 0
C 20.613830270405643 33.99220770578178 0
C 22.767468143325484 35.165740765458544 0
C 24.92440213245367 36.33566347189833 0
C 27.08492311475245 37.50237866572187 0
C 29.24840800847901 38.66728208824901 0
C 31.414673343198686 39.832226152558064 0
C 33.582367522336476 40.99920525970756 0
C 35.75005769849808 42.16992085680758 0
C 37.91710290588656 43.34529565045897 0
C 40.08257133852944 44.52540639282273 0
C 42.246399263970964 45.70986265155981 0
C 18.410347998217546 30.348251489280432 0
C 20.559335019694473 31.527113266363642 0
C 22.710866575487273 32.70278369518499 0
C 24.8651039707397 33.875033049684504 0
C 27.022897810050583 35.04444215561412 0
C 29.18404373239606 36.211493589411184 0
C 31.347937306774607 37.377906900303735 0
C 33.514183121922265 38.5454354998368 0
C 35.68138708178755 39.71572859810747 0
C 37.8484216455046 40.890058208872084 0
C 40.01462906170551 42.06896097786176 0
C 42.17956791138389 43.25204899930901 0
C 44.34314175985712 44.4389785565249 0
C 46.505376821440414 45.628904469369495 0
C 16.21489592149882 26.699316995844196 0
C 18.361052822471894 27.88159840737586 0
C 20.50866879554439 29.061828689294035 0
C 22.65834933172223 30.23963774634418 0
C 24.810774128069703 31.414370116601447 0
C 26.96612741814499 32.58632716920849 0
C 29.124867656854896 33.75586712399035 0
C 31.28667868752621 34.924175176632055 0
C 33.4508926932692 36.092703643396014 0
C 35.61687132611107 37.26309912207497 0
C 37.783174350685776 38.43673216657432 0
C 39.9492837334774 39.61431788232429 0
C 42.11448346665149 40.79613775437645 0
C 44.27852117764636 41.98169227452569 0
C 46.44138877737139 43.170624122748244 0
C 48.603210411639026 44.36200804406198 0
C 50.764294885032044 45.55503726506995 0
C 14.023253103791683 23.047496618613078 0
C 16.168181225372216 24.231596711618316 0
C 18.31373594287883 25.41492027167018 0
C 20.460592777080016 26.596629513812776 0
C 22.60918992097297 27.776306536575753 0
C 24.760087593255772 28.953531002632353 0
C 26.91382047069087 30.12805755507362 0
C 29.070452884578025 31.300269319590097 0
C 31.23024739643904 32.47069815219253 0
C 33.392592638327 33.64065775473798 0
C 35.55677872361136 34.811553093039166 0
C 37.72208442755204 35.984831705528215 0
C 39.8874142688016 37.16139718312702 0
C 42.05216958469862 38.341859737995904 0
C 44.21613410850404 39.52603924087193 0
C 46.37892314805675 40.71354069760379 0
C 48.5407994256554 41.90390230006416 0
C 50.70184633552689 43.09620312970943 0
C 52.8624396572761 44.2897034394173 0
C 55.022964218251786 45.48359624109625 0
C 11.83169865962163 19.395201313047163 0
C 13.9768477246682 20.57941422517579 0
C 16.12193403487117 21.764003658746454 0
C 18.267520663658917 22.948240084870992 0
C 20.414069441067117 24.131510418956918 0
C 22.562171678413918 25.31308041271706 0
C 24.71222403775425 26.492626039263822 0
C 26.864707036270747 27.669743016168102 0
C 29.01994602275971 28.844473690504035 0
C 31.177870447866 30.017317386986424 0
C 33.33851704312677 31.188944769218857 0
C 35.50116540595492 32.36072884627404 0
C 37.664924618370705 33.5339837347838 0
C 39.82926957418965 34.70985008469268 0
C 41.99329739046224 35.88893208576477 0
C 44.15653678611615 37.07168468033194 0
C 46.3190422223554 38.257653437590704 0
C 48.48028848717008 39.44658231457862 0
C 50.640834167162 40.63786644766975 0
C 52.80094879162445 41.8305680342417 0
C 54.960660368425394 43.024144841406105 0
C 57.12066716548912 44.21768449660349 0
C 59.28117323056929 45.41043820493559 0
C 9.636718361869551 15.744652799152778 0
C 11.783550420769945 16.927212308958477 0
C 13.929540865552013 18.1114452194535 0
C 16.075334953786143 19.296569376055345 0
C 18.221387154723143 20.481812551150366 0
C 20.368215714065073 21.66650598937801 0
C 22.51628012203416 22.850001610869157 0
C 24.66602800147208 24.031696899436643 0
C 26.81783593275166 25.211286318874254 0
C 28.97204929566053 26.388505872001254 0
C 31.128758380693835 27.563691063727713 0
C 33.287821596921205 28.737273044797885 0
C 35.44904087393818 29.910192940144988 0
C 37.61158795005529 31.08375112247913 0
C 39.77480550028371 32.25904144131424 0
C 41.93785624888179 33.437153189646914 0
C 44.100371059389836 34.61825865427505 0
C 46.26204607098364 35.80268862119193 0
C 48.42252343332061 36.9901233821799 0
C 50.58225638976031 38.17988773920059 0
C 52.741228101742124 39.37163083920745 0
C 54.89993712867222 40.56439094638005 0
C 57.0586033569387 41.75758682059439 0
C 59.21778966937534 42.9503465030109 0
C 61.37764425764865 44.14183271490336 0
C 63.53885395064424 45.3310008593372 0
C 7.4342433390519504 12.098480136645337 0
C 9.584461509605037 13.27753798697035 0
C 11.733060372527289 14.459471299093352 0
C 13.880528361972804 15.643731204074617 0
C 16.02746132633054 16.82937300631559 0
C 18.17453550063285 18.01563833848525 0
C 20.322079034658827 19.20167651850387 0
C 22.470565525545148 20.386936887997162 0
C 24.62045875157489 21.570750797949362 0
C 26.772029922326613 22.752690962917338 0
C 28.92572477751522 23.932391659079006 0
C 31.08166972235852 25.109771217454327 0
C 33.23972749547846 26.285399514219087 0
C 35.39973082539656 27.459706449966415 0
C 37.56126700104793 28.63380303576543 0
C 39.723465392629464 29.80886898153664 0
C 41.88557757274855 30.98603191776039 0
C 44.04745245291003 32.165713486349965 0
C 46.20807553806651 33.34847975555928 0
C 48.36766720497887 34.53428894769108 0
C 50.526581733815945 35.72239200748154 0
C 52.6843397840516 36.91269134272287 0
C 54.84175684652691 38.104400200913275 0
C 56.99868395971796 39.29685794853661 0
C 59.155980207106886 40.4892548147054 0
C 61.31400874758109 41.68075541524936 0
C 63.47291337305158 42.87044622767149 0
C 65.6335287382855 44.057308684551536 0
C 67.79589495779605 45.24048828563454 0
C 5.219966330630606 8.459314639985834 0
C 7.375586809152638 9.632992935988243 0
C 9.528605339720151 10.810848965529697 0
C 11.679457385041614 11.992287935833764 0
C 13.829000696121044 13.176439073472528 0
C 15.977694469417042 14.362577729602698 0
C 18.125982505723925 15.549735046851175 0
C 20.274759974958236 16.737158969043513 0
C 22.424022776403348 17.924070204099927 0
C 24.574459767099324 19.10988150505009 0
C 26.72636662286221 20.293956939825083 0
C 28.880060135991783 21.475862456699286 0
C 31.03551821530822 22.65572400266988 0
C 33.19309403814647 23.833168789474197 0
C 35.3523240872029 25.009092431321076 0
C 37.51297622436135 26.184013942077364 0
C 39.67447842841566 27.359080010955935 0
C 41.83596682870215 28.53541580508289 0
C 43.996984603326226 29.71387777292821 0
C 46.15689171917521 30.895094374765787 0
C 48.31584433350096 32.07881820585019 0
C 50.473704317793384 33.26528494715618 0
C 52.630320947237145 34.453960031219665 0
C 54.7861724816 35.64428584266348 0
C 56.94168776915592 36.83562783119957 0
C 59.09687883192107 38.02728644815103 0
C 61.25267221227318 39.21843580006062 0
C 63.40909539300616 40.40812902251226 0
C 65.56690640631588 41.59555549012363 0
C 67.72665197232284 42.779622201176856 0
C 69.88837351251875 43.959427639940884 0
C 72.05250920472318 45.1343145294453 0
C 2.9909864290127746 4.828957769938646 0
C 5.153254377689711 5.9962394342108265 0
C 7.312138355767895 7.1684311922776125 0
C 9.46821648326261 8.344881366146883 0
C 11.622067738249202 9.525684840288937 0
C 13.774141892545314 10.709822707905959 0
C 15.925065003404793 11.896261833072947 0
C 18.07537479798893 13.084253692083745 0
C 20.225418000370297 14.27288426186641 0
C 22.37614835499542 15.461329604095152 0
C 24.527569111945084 16.648842968531152 0
C 26.67995333363729 17.83509923438391 0
C 28.83399586980762 19.019205080914293 0
C 30.989448189241813 20.20122997532489 0
C 33.1468404727658 21.380791210541766 0
C 35.30582627247398 22.558149293719172 0
C 37.46600468152306 23.734140040986897 0
C 39.626971312026214 24.90947926881033 0
C 41.787995212673664 26.085356396205455 0
C 43.94862392127682 27.262531968727213 0
C 46.10810151896615 28.44207888302441 0
C 48.266325698091386 29.624107880775686 0
C 50.42329403069736 30.80854064473432 0
C 52.57909181987546 31.99536387650164 0
C 54.73357448403582 33.18408104475908 0
C 56.88743436972774 34.374042627819314 0
C 59.04091698059256 35.5646292734857 0
C 61.19424881320172 36.75507008021751 0
C 63.34825574375874 37.94448948912832 0
C 65.5032190902847 39.13196447625113 0
C 67.65977165347033 40.3166880398755 0
C 69.8183963901762 41.497341713457 0
C 71.9793648058276 42.6736114868053 0
C 74.14309341012766 43.844564214992474 0
C 76.30921264422345 45.010744570712845 0
C 0.7489027861975389 1.2065253333489343 0
C 2.9161805486102788 2.368986106973598 0
C 5.081309925941751 3.534526003391603 0
C 7.243910981042116 4.704942181498441 0
C 9.403364956371469 5.880278410335148 0
C 11.560514257609748 7.060229394026613 0
C 13.71561150356861 8.244076077306312 0
C 15.869127580462012 9.430743255359115 0
C 18.021703197532513 10.619330347987969 0
C 20.17386052151774 11.808957703908792 0
C 22.326029256108143 12.998767970943188 0
C 24.47866835609531 14.188045379497646 0
C 26.632228301229866 15.37597500212455 0
C 28.786781007542043 16.562305241054897 0
C 30.942681124382716 17.74636655778615 0
C 33.10018682770893 18.92792072135721 0
C 35.25920251119666 20.10705209804421 0
C 37.4193665893952 21.284073093687585 0
C 39.580188505928476 22.45990984999947 0
C 41.74115335045051 23.635387917015695 0
C 43.90163209235241 24.81159630721326 0
C 46.0609297026205 25.989478771215182 0
C 48.21881292731829 27.169654562966635 0
C 50.37526259312399 28.3521084093399 0
C 52.53007338653684 29.536948256465404 0
C 54.68350739767047 30.723907797297795 0
C 56.836038042501876 31.912192281339763 0
C 58.98788016695321 33.1014339392496 0
C 61.13932010372308 34.290889033410515 0
C 63.290791952825 35.47973132014523 0
C 65.44312697620562 36.66703923005215 0
C 67.59662064075066 37.851993121197324 0
C 69.75185389714937 39.033607068801416 0
C 71.90943061677562 40.21080069208402 0
C 74.06967784237426 41.38346878985183 0
C 76.23305128760703 42.55107887626486 0
C 78.39898497913062 43.71477990041186 0
C 5.006019164591766 1.0745895662987843 0
C 7.171484197840495 2.243464082101561 0
C 9.334536547309757 3.417336222866413 0
C 11.4948842689956 4.5963018480828675 0