ITEM: TIMESTEP
0
ITEM: NUMBER OF ATOMS
11908
ITEM: BOX BOUNDS xy xz yz pp pp pp 
-67.09781740 134.19563480 -67.09781740 
0.00000000 116.21682882 0.00000000 
-20.000 20.000 0.000 
ITEM: ATOMS type x y z
C -65.00122940530733 114.93025759434082 0
C -62.83871702105627 116.10475769837112 0
C -62.90269311948214 113.6460549842029 0
C -60.74113187014791 114.82209036779702 0
C -58.57945645302492 116.00364264703892 0
C -62.965847503600195 111.18838887558398 0
C -60.80361082069905 112.36617660084187 0
C -58.64099901260206 113.54497708297899 0
C -56.47910219496721 114.72889185251286 0
C -54.32042237702683 115.91953801396113 0
C -60.862979285249196 109.90965279582359 0
C -58.700705764015396 111.08941591759731 0
C -56.53803583763904 112.2726423200706 0
C -54.37757602560674 113.46016491193264 0
C -52.217669277541695 114.65357043910679 0
C -50.06026433919772 115.8507952663475 0
C -60.917546636081006 107.45510992190698 0
C -58.75580661360221 108.63514617421967 0
C -56.5949415875483 109.81782848736232 0
C -54.43349227705323 111.00529624237099 0
C -52.273250880129424 112.19737648576745 0
C -50.11414063258304 113.3927943512242 0
C -47.956053046782586 114.59326869976678 0
C -45.80084021166442 115.797598542324 0
C -58.80789856237738 106.18174452097941 0
C -56.646539629819976 107.36495114017805 0
C -54.48510550319184 108.55158649102329 0
C -52.325688190152064 109.74162776351301 0
C -50.16485705022519 110.9371971082899 0
C -48.0074631146787 112.13666277120035 0
C -45.85010478862728 113.33914251832617 0
C -43.69446141887264 114.54624308834462 0
C -41.541433171864604 115.75561704637275 0
C -58.853626128668886 103.73029782016029 0
C -56.694825848881955 104.91366330367626 0
C -54.53548971050437 106.09936757784486 0
C -52.37568552662314 107.29073502011663 0
C -50.21486280097234 108.48319564218765 0
C -48.05636834468171 109.68161514209423 0
C -45.89754683059606 110.8833770982853 0
C -43.742093130227225 112.08819543815395 0
C -41.58645846036647 113.29743602205154 0
C -39.4337177465473 114.50917641034985 0
C -37.281260775796056 115.72244407071881 0
C -56.738855226242705 102.4627227975586 0
C -54.58037628648374 103.64984165206936 0
C -52.42136376707076 104.83910848024625 0
C -50.26103739332376 106.03162236843872 0
C -48.10271304246362 107.22866892362073 0
C -45.94496050071818 108.42904400304148 0
C -43.78837128730151 109.63393664161462 0
C -41.63191761047317 110.84067188998515 0
C -39.47782330580756 112.05124809243571 0
C -37.32404967528593 113.26440840927621 0
C -35.17233018491227 114.47927848741796 0
C -33.02141116323706 115.69672265150538 0
C -56.77743675909006 100.0132922564075 0
C -54.620741831509456 101.20013451221777 0
C -52.46319476387228 102.38915374920553 0
C -50.304446618458115 103.5818192448541 0
C -48.14576127759752 104.7769814785238 0
C -45.98808026121796 105.9764941310321 0
C -43.83080994502486 107.1796499247922 0
C -41.675328178089885 108.38584179378213 0
C -39.520364447738544 109.59514256881278 0
C -37.36694077847604 110.80741454620362 0
C -35.213746714945415 112.02160530430334 0
C -33.06201242611722 113.23789147157055 0
C -30.91165359953755 114.4560433261337 0
C -28.76164570726009 115.67587274243235 0
C -54.65689064105796 98.7505128184185 0
C -52.50086331381006 99.94093193439741 0
C -50.34342692622491 101.13178649601905 0
C -48.1851286076099 102.32682036219323 0
C -46.0289860286037 103.52615244299112 0
C -43.87223413237215 104.72697612166161 0
C -41.715497653625576 105.9324473375662 0
C -39.56087415546964 107.1406222433689 0
C -37.407292715809334 108.35132002337018 0
C -35.253676890258895 109.56502176149507 0
C -33.10213157628687 110.78038083686485 0
C -30.950629380841825 111.99779210299086 0
C -28.80018059288323 113.21701567089589 0
C -26.65080762608122 114.43731175232573 0
C -24.50175795627813 115.65897180610574 0
C -54.689309495676355 96.30227897414892 0
C -52.5346636736542 97.49155333760214 0
C -50.37794384576426 98.6834485083725 0
C -48.22187838028927 99.87794031404387 0
C -46.06580549633637 101.0753083431057 0
C -43.91055484039703 102.27726297062974 0
C -41.75429900483184 103.48012576642125 0
C -39.59989054138408 104.6875741151303 0
C -37.44621328327041 105.89768113732679 0
C -35.29290192014454 107.1091796380934 0
C -33.14070981367351 108.32443655388073 0
C -30.98850009037257 109.54073444847448 0
C -28.838341673107706 110.75886543886304 0
C -26.688526390324284 111.97910915093415 0
C -24.538848262874954 113.19992673770382 0
C -22.39020294371124 114.42210202416221 0
C -20.241989963688464 115.64528947669507 0
C -52.56508321489517 95.04381332324206 0
C -50.410366720721115 96.2356842967127 0
C -48.25533368379773 97.42968798177972 0
C -46.09969074712042 98.6266568029266 0
C -43.94442103222365 99.82647892970942 0
C -41.78945561547349 101.0294382292408 0
C -39.63566286519048 102.23536220381261 0
C -37.48218648749926 103.44407191449285 0
C -35.32868648148682 104.65536602626642 0
C -33.17708614366617 105.86878567165752 0
C -31.025484263531446 107.08460270993565 0
C -28.875154674940198 108.3023937338782 0
C -26.724902951691725 109.5211639685471 0
C -24.574924343320895 110.74178154844628 0
C -22.426337324203747 111.96351125565725 0
C -20.277879468620068 113.18595573242578 0
C -18.129968014975052 114.40968952361726 0
C -15.982316934631642 115.63377026760008 0
C -52.592731874784974 92.59628379108443 0
C -50.439605429180524 93.78786743160028 0
C -48.28541779484042 94.98237926289599 0
C -46.13101582852671 96.17884210993458 0
C -43.976841996680385 97.37763742845836 0
C -41.82263353428989 98.57995170006303 0
C -39.6685107702401 99.78426284036644 0
C -37.51577768831092 100.99188849823491 0
C -35.36374917651034 102.20262000291332 0
C -33.21156792281368 103.41482141683838 0
C -31.060297577713587 104.62935867879439 0
C -28.909534039943452 105.84618611323025 0
C -26.76010087956265 107.06466665138012 0
C -24.610381589008128 108.28430521432759 0
C -22.461402612744187 109.50540576086425 0
C -20.312668519934196 110.72760537116 0
C -18.16466595933935 111.95065107974095 0
C -16.017077544256924 113.17456606332308 0
C -13.869530278892698 114.39903758935692 0
C -11.72252072601244 115.62399695453931 0
C -50.464849238195775 91.34057883972332 0
C -48.31257217826892 92.53488606740655 0
C -46.158775221674354 93.73047777625194 0
C -44.00461552123903 94.92897417203677 0
C -41.852245173624915 96.13014525602281 0
C -39.698524963990515 97.33392596617504 0
C -37.54689519304749 98.54117582331482 0
C -35.394852346292375 99.74960477256079 0
C -33.24277492889802 100.96137094316559 0
C -31.092811531757842 102.17539540778347 0
C -28.942634294176937 103.39081344724053 0
C -26.792399638154443 104.60855637495509 0
C -24.643841158414517 105.82761340067682 0
C -22.495110827334045 107.04804227840322 0
C -20.346418568121656 108.26973446233852 0
C -18.198710032007593 109.49228541641772 0
C -16.050904556634517 110.7157586848597 0
C -13.903698918040728 111.93998211304186 0
C -11.756564872613604 113.16469539816308 0
C -9.609582830442278 114.38992196755878 0
C -7.462818817523178 115.61543527516675 0
C -50.48891204709426 88.89333084653744 0
C -48.33685599369352 90.0874925601604 0
C -46.18443712452545 91.28350766957352 0
C -44.03196368102102 92.48132361289748 0
C -41.879645968967395 93.68235174164532 0
C -39.726820661820355 94.88461670010065 0
C -37.57518512562811 96.09027095895117 0
C -35.42431824550396 97.29903992976973 0
C -33.27298722094307 98.50876729320142 0
C -31.12292424418867 99.72194678790324 0
C -28.972470959058757 100.93655261847607 0
C -26.82417323506213 102.15308163654412 0
C -24.67461521530486 103.37156078834606 0
C -22.52709647724057 104.59149369772878 0
C -20.37914081170627 105.81229004351522 0
C -18.230810930842807 107.03446210233686 0
C -16.08381983114951 108.25743778365641 0
C -13.936844647780358 109.4812521071226 0
C -11.789486257004764 110.70571349226981 0
C -9.643013321673978 111.93061679157735 0
C -7.496259867286015 113.15604370484273 0
C -5.349629362787212 114.38172799931651 0
C -3.203083361486945 115.60758046972923 0
C -48.35950125571847 87.64077976767597 0
C -46.20779332307855 88.83637736356228 0
C -44.05604394635362 90.0340773372905 0
C -41.90404989458143 91.23381963655933 0
C -39.75248403605818 92.43593283984214 0
C -37.60145655022239 93.64070288536382 0
C -35.45087293697199 94.84806003954007 0
C -33.30000711248333 96.05725099544699 0
C -31.150711153283783 97.26898664090302 0
C -29.001589975641107 98.48302556910203 0
C -26.853369988026262 99.69910797166597 0
C -24.70482873320312 100.9161646868514 0
C -22.556748063698414 102.13527973772138 0
C -20.409728159658712 103.35577515410445 0
C -18.262558485702804 104.57709232634429 0
C -16.115507872938018 105.79972318780656 0
C -13.968722932389118 107.02300743067461 0
C -11.822082339839735 108.24698191996795 0
C -9.675664881578701 109.47176452285629 0
C -7.529082756080998 110.69680809550773 0
C -5.382490454637549 111.92228981142787 0
C -3.2360427896963913 113.14807907208144 0
C -1.089858846482733 114.37402850248735 0
C 1.0565893598321756 115.6000572706845 0
C -48.37981587629829 85.19346347241759 0
C -46.22911661834069 86.3894828891701 0
C -44.07837419896813 87.5875066978557 0
C -41.92709970446294 88.78612119256351 0
C -39.77569316098775 89.98759365520269 0
C -37.62491416260747 91.19139934946833 0
C -35.475067439097245 92.39750153501646 0
C -33.324980143383634 93.60611319578693 0
C -31.176082147968536 94.81699045299814 0
C -29.027690204563324 96.02980257638535 0
C -26.879239269941795 97.2448251163772 0
C -24.73209515190874 98.46158420415239 0
C -22.58488788969593 99.67965061386222 0
C -20.43772402827232 100.89939191616665 0
C -18.291182720656764 102.1202278552002 0
C -16.14496379617694 103.34211593442387 0
C -13.998811292277571 104.56506406361243 0
C -11.852574307823344 105.78864890434735 0
C -9.70668835464468 107.01294561876483 0
C -7.560603731549722 108.23781033492209 0
C -5.414700247450272 109.46304388871776 0
C -3.268743176155497 110.68866868629271 0
C -1.1225280390776857 111.91448428718215 0
C 1.0234521281723599 113.14045263689954 0
C 3.169823024145098 114.36647901131728 0
C 5.316219261584275 115.59238690813702 0
C -46.24848496412842 83.94268254823443 0
C -44.098510409584705 85.13995669717286 0
C -41.94749623485066 86.33891771987919 0
C -39.79728601048912 87.53968327724874 0
C -37.64740981135589 88.74292926514643 0
C -35.49695054855435 89.94790409520411 0
C -33.34829177709981 91.15542320881592 0
C -31.199261317203593 92.36533159458926 0
C -29.051114096901223 93.57737709550264 0
C -26.904301493070182 94.79128078288902 0
C -24.756606692418142 96.00717211235926 0
C -22.61062193685594 97.22481497749824 0
C -20.464359121419758 98.44345791363662 0
C -18.318811225687426 99.6640604489691 0
C -16.17266963872339 100.88511604290476 0
C -14.027272291723726 102.1074241514987 0
C -11.881404757897888 103.3306161175374 0
C -9.736585596315662 104.55452811026191 0
C -7.591175226406616 105.77900480727834 0
C -5.445511111512675 107.00398590181618 0
C -3.3003786077490123 108.22933535456052 0
C -1.1548078022205042 109.45501358600399 0
C 0.9910596850565342 110.68086316186289 0
C 3.136857911246609 111.90675894967593 0
C 5.283007180483951 113.13272811533923 0
C 7.429264150592931 114.35856845321406 0
C 9.575674252128476 115.58426154284791 0
C -46.26649790730706 81.49562304112877 0
C -44.11715746383662 82.69360623294999 0
C -41.96735626487974 83.89224671972998 0
C -39.817395682807756 85.09261202234704 0
C -37.66778216914983 86.29486713014346 0
C -35.51851364387735 87.49920897510616 0
C -33.369259528070835 88.70570829390978 0
C -31.221327354079126 89.91449063112047 0
C -29.073853101113144 91.12568116515101 0
C -26.927207902349267 92.3390990837328 0
C -24.780363161936133 93.55339122866508 0
C -22.6339022598159 94.77007735630583 0
C -20.48814006225152 95.98817932745868 0
C -18.343515224822628 97.20763366134966 0
C -16.198553206089215 98.42861940245673 0
C -14.053623460542944 99.65025245665535 0
C -11.908738640007108 100.87274491599554 0
C -9.764530392889034 102.09642142108872 0
C -7.619661565124912 103.32037436445907 0
C -5.47475705239378 104.54494960674243 0
C -3.3303980883651745 105.77015559636183 0
C -1.1854395553676245 106.99552369113646 0
C 0.9598615107879588 108.22114935597413 0
C 3.1048653192003357 109.44703226686894 0
C 5.250223563543892 110.67290518590058 0
C 7.396009361886998 111.89873513629874 0
C 9.542179428187307 113.12448883773872 0
C 11.688388190613711 114.34998638703915 0
C 13.835201233059058 115.57511774160007 0
C -44.1340250826699 80.24650882262505 0
C -41.9849650400162 81.44514915912335 0
C -39.835511962483 82.64514924145315 0
C -37.68645318368676 83.8470145464983 0
C -35.53749397564589 85.05046388492192 0
C -33.38900098891807 86.25625150053844 0
C -31.24139881847477 87.46432976244722 0
C -29.094302998039602 88.67427238741256 0
C -26.947875210940914 89.88663805170216 0
C -24.801799383814824 91.10058041057276 0
C -22.656147351243934 92.31592675171427 0
C -20.510971709010864 93.53340671146633 0
C -18.36675209606624 94.7523495541344 0
C -16.222183745833906 95.9720687395718 0
C -14.077926131925851 97.19332416966499 0
C -11.933643889867305 98.41528165640426 0
C -9.790141866957576 99.63823222661189 0
C -7.646395101971747 100.86201046333882 0
C -5.502210663246292 102.08612127494918 0
C -3.358588259315699 103.31094700589422 0
C -1.214058103656586 104.53602738357482 0
C 0.9298158234665674 105.76148736385834 0
C 3.0743471682947208 106.98715304102109 0
C 5.219200634371838 108.21287013669121 0
C 7.363736560702059 109.43874609019838 0
C 9.509384321332933 110.6643760187287 0
C 11.654861602467118 111.88994358587065 0
C 13.800879525726398 113.11535553629108 0
C 15.947533682518218 114.34012054543581 0
C 18.094515955553128 115.56462062425332 0
C -44.15015750081605 77.79961828627427 0
C -42.00161945045735 78.99879158245578 0
C -39.852527533674895 80.19800557509433 0
C -37.70390614851704 81.39945600669341 0
C -35.55496944208998 82.60218487908999 0
C -33.40737555444449 83.80718621767241 0
C -31.25999121832381 85.01453636795104 0
C -29.113101737898987 86.22364553066032 0
C -26.966906106830447 87.43445533195789 0
C -24.821463216145624 88.64789591922447 0
C -22.676125032364858 89.86248137960668 0
C -20.531686412677285 91.0787346814587 0
C -18.38784770585755 92.29711813307811 0
C -16.243687671920622 93.51613692515555 0
C -14.100346970756158 94.73648873051137 0
C -11.95721500391104 95.958210790319 0
C -9.813877714544539 97.18045764506817 0
C -7.670963464409602 98.40359037142633 0
C -5.527946794557243 99.62754039259715 0
C -3.385161966646895 100.85186410386486 0
C -1.2420562994788504 102.07670819441896 0
C 0.9014817938777897 103.30188187567622 0
C 3.045073711809591 104.52719915113425 0
C 5.188861844083262 105.75286310161673 0
C 7.33277979080875 106.97849438028472 0
C 9.477259686741023 108.20409662001407 0
C 11.622273247940209 109.4297002175275 0
C 13.76759276693792 110.65490548521434 0
C 15.913047013895639 111.88006713768448 0
C 18.059582980424185 113.10459101048185 0
C 20.206357061116506 114.32860210693788 0
C 22.353798496204085 115.55227153827109 0
C -42.01693597731155 76.55160631560496 0
C -39.86831667297627 77.75119983349461 0
C -37.72017218149976 78.95224479891253 0
C -35.57188585498403 80.15431686239087 0
C -33.42447687926857 81.35915013226472 0
C -31.276992524562385 82.56474839328847 0
C -29.130430626226545 83.77301565212801 0
C -26.983964172858414 84.98289915970778 0
C -24.839242971487927 86.19506328756218 0
C -22.694111715513408 87.40894528103269 0
C -20.549997976908173 88.62461077680292 0
C -18.406988584568854 89.84175294331322 0
C -16.26399339110615 91.06068445450201 0
C -14.120634216702125 92.2801665954197 0
C -11.978487118916286 93.50102210553041 0
C -9.836390392491497 94.72310441399985 0
C -7.693775577229665 95.94556611186776 0
C -5.551762789562935 97.16888084528755 0
C -3.409118860132123 98.39282802071206 0
C -1.267432173424557 99.61733095114609 0
C 0.874988891348888 100.84213250544589 0
C 3.0177286477953276 102.06732814233473 0
C 5.160296997325913 103.29260570862233 0
C 7.303373231056113 104.51809455674375 0
C 9.447078094334316 105.74364416816303 0
C 11.59070490774707 106.96897838865044 0
C 13.735208751703576 108.19431380480839 0
C 15.879812430610937 109.4193686894431 0
C 18.024918018224067 110.6440721199807 0
C 20.171160302104344 111.86837659808182 0
C 22.317592976910213 113.09188325935814 0
C 24.464726322212748 114.31492439617767 0
C 26.61299066900556 115.5369284928978 0
C -42.03145177475909 74.10500653035791 0
C -39.883451714227064 75.30456742942368 0
C -37.735301430157875 76.50495892283493 0
C -35.58734289657687 77.70679309236849 0
C -33.4398373200004 78.91026165059098 0
C -31.293022141910694 80.11585899567034 0
C -29.146642247220317 81.32293359232362 0
C -27.000963229900872 82.53222028416884 0
C -24.85618058906797 83.74365724225288 0
C -22.71151798055848 84.95612977721342 0
C -20.567853716720812 86.17108383258058 0
C -18.42434563204148 87.38723531706657 0
C -16.28211527080423 88.60495135271843 0
C -14.13947776583868 89.82406502091334 0
C -11.998034397456113 91.04443669651202 0
C -9.856344607469987 92.26549373672411 0
C -7.7142433645824235 93.48750477136373 0
C -5.573437045891282 94.71046991212201 0
C -3.431903948105528 95.93386433625194 0
C -1.290124186695577 97.15785169486254 0
C 0.850677086672479 98.38243602714539 0
C 2.992536216286954 99.60716082281489 0
C 5.13451883003241 100.83221952405722 0
C 7.275964925563747 102.05757418515923 0
C 9.418298446948668 103.28279207307504 0
C 11.561118175899338 104.50811719557649 0
C 13.704043645227474 105.73332086456355 0
C 15.847713944512437 106.95825955585858 0
C 17.992098421674637 108.18307812809806 0
C 20.136530261381264 109.40733370714818 0
C 22.28212897757747 110.63106415964523 0
C 24.428382691271118 111.8543246503276 0
C 26.575061440364173 113.07659355789613 0
C 28.723142103871897 114.29796400469735 0
C 30.87195022777947 115.51807749873748 0
C -39.89747464738251 72.85761382753645 0
C -37.749756810572926 74.05811383490817 0
C -35.60190493368831 75.2594165741512 0
C -33.45469453764972 76.46224728453669 0
C -31.307757794859395 77.6667548180728 0
C -29.16172136218948 78.87338024570627 0
C -27.016120070781632 80.08141717623552 0
C -24.871214288126847 81.29167410809175 0
C -22.72721162515997 82.50384594546497 0
C -20.58395012425925 83.71753695375499 0
C -18.44128546703876 84.93329923380641 0
C -16.299033879646373 86.15020557444939 0
C -14.157171087972712 87.36818224010065 0
C -12.015633249121546 88.58783647648629 0
C -9.874451689982212 89.80826975188425 0
C -7.733903787457346 91.0297308013698 0
C -5.593070182368273 92.25211938032785 0
C -3.4525160752065465 93.47499573206673 0
C -1.3122729493673042 94.6986343608343 0
C 0.8285797871952327 95.92265406657032 0
C 2.968999086506126 97.1470496949708 0
C 5.109562612661112 98.37192846776641 0
C 7.250956766147273 99.59670287551573 0
C 9.391622629537329 100.82182445988492 0
C 11.533524837603238 102.04690338965797 0
C 13.675653197154375 103.2718322516046 0
C 15.817430054265637 104.49690513911732 0
C 17.960837517522545 105.72138256850118 0
C 20.10423678414487 106.94568047907448 0
C 22.24785521058872 108.16976722342777 0
C 24.392785110471653 109.3927654176225 0
C 26.53850749878482 110.6154349666083 0
C 28.684785537466322 111.8371656040706 0
C 30.83242084903898 113.05755006978566 0
C 32.98100520377868 114.27721260070759 0
C 35.13033602250484 115.49480766234865 0
C -39.9106852964142 70.41083087634478 0
C -37.76339403177137 71.61126164800238 0
C -35.61584692709514 72.81211927640297 0
C -33.46902270649507 74.01504204947014 0
C -31.321900280965853 75.21821685879881 0
C -29.176003701641648 76.42404842206551 0
C -27.030743726819093 77.6317035268147 0
C -24.88588805913506 78.84051835012635 0
C -22.74210588857874 80.05192837324302 0
C -20.598484713319287 81.2645183656556 0
C -18.456232367430136 82.47900081473159 0
C -16.31404927023999 83.69513580673427 0
C -14.172944297449403 84.9127970856396 0
C -12.032120001471986 86.13132503336796 0
C -9.891839427271375 87.35152673978256 0
C -7.751476308465971 88.57224563120025 0
C -5.611591055568527 89.79381549278311 0
C -3.4714918530826693 91.0163219241396 0
C -1.3322856429705188 92.23943290996897 0
C 0.8074246025479331 93.46295437229247 0
C 2.947377735299861 94.68708007475777 0
C 5.086830708089489 95.9112991040873 0
C 7.226664627267258 97.13595686996318 0
C 9.367022709748301 98.36070805445796 0
C 11.507402379514039 99.58538481986193 0
C 13.648230464766065 100.81032524973969 0
C 15.78953493558955 102.03489006140296 0
C 17.930639462104427 103.25941802282118 0
C 20.072984558731488 104.4837648973288 0
C 22.21583192167543 105.70734714618166 0
C 24.35870556129546 106.93084568939044 0
C 26.503303826291 108.15337697935635 0
C 28.647948569678015 109.37511660682077 0
C 30.793808362640334 110.5964007294174 0
C 32.9408914418954 111.81561992184177 0
C 35.08879117360288 113.03412625746672 0
C 37.238271108627195 114.25097354449828 0
C 39.389261505622194 115.464997642512 0
C -37.776409342063744 69.16438080543925 0
C -35.6290933473776 70.36519654770369 0
C -33.48211008963301 71.56702523482882 0
C -31.33533196170549 72.7701788378028 0
C -29.189495869336387 73.97507405133695 0
C -27.04403995639351 75.18146710982805 0
C -24.899174159146753 76.38967018338239 0
C -22.755647510122973 77.59990343008886 0
C -20.612363521737393 78.8117712971928 0
C -18.470520435568854 80.02584992808848 0
C -16.32859050839566 81.240587495835 0
C -14.18774286295772 82.45757181674118 0
C -12.046725119738133 83.67521134136241 0
C -9.907094147694549 84.89438562126773 0
C -7.767684669053435 86.11484028474693 0
C -5.628137301188776 87.33579669061362 0
C -3.488962524918103 88.557498587136 0
C -1.350374630382015 89.78025966743778 0
C 0.7887540629835069 91.00328663299744 0
C 2.927640257214613 92.22667889079048 0
C 5.066232072340613 93.45076335587812 0
C 7.205235678974307 94.67490901028773 0
C 9.344448548130078 95.89920150715307 0
C 11.48358594698622 97.12386262917316 0
C 13.622835032191324 98.34826275003526 0
C 15.762655532847372 99.57272490256996 0
C 17.90330748050445 100.7971315470391 0
C 20.04358044364009 102.02098806207512 0
C 22.18496772198903 103.24476138904367 0
C 24.327086699055442 104.4679471750604 0
C 26.46915593219468 105.69055136078255 0
C 28.61294241950292 106.91264825151903 0
C 30.75701190591587 108.13341451002977 0
C 32.90191503429211 109.35349186266832 0
C 35.04863674623225 110.5722048811681 0
C 37.195816250037275 111.78901775949818 0
C 39.344762233042 113.00467838142134 0
C 41.49519200740141 114.21760411356614 0
C 43.647047512301164 115.42816722087986 0
C -37.78895922438433 66.71755117152425 0
C -35.64192223011149 67.91836313560692 0
C -33.494927992638004 69.11975364718116 0
C -31.34832274941593 70.32231583902822 0
C -29.20230765032567 71.52643990289032 0
C -27.057057252802156 72.73211637038793 0
C -24.91256596934896 73.93967750640856 0
C -22.76866432678255 75.14882511783739 0
C -20.62549782685589 76.35942032045874 0
C -18.48330563935223 77.57227360309182 0
C -16.341717626941684 78.7864939795963 0
C -14.201178961974968 80.00221814899325 0
C -12.06086005328612 81.21951793660294 0
C -9.921085477847063 82.43775765255617 0
C -7.782194860797828 83.65722935332255 0
C -5.643101475474201 84.87767333730052 0
C -3.5045866909357417 86.09884863956883 0
C -1.3666350831712344 87.3209396121415 0
C 0.7713023193078983 88.54356012498305 0
C 2.9097190208305928 89.76644525933685 0
C 5.04735226903975 90.99002013897223 0
C 7.185865568333364 92.21363544207887 0
C 9.323540099904223 93.4377588397527 0
C 11.461487033559035 94.66186492630383 0
C 13.600392212482987 95.88595445808045 0
C 15.73843877491249 97.11030797890729 0
C 17.877375464825917 98.33413239316269 0
C 20.017182963904233 99.55796628076087 0
C 22.156375004131792 100.781504397137 0
C 24.296720706077497 102.00442909003634 0
C 26.43804822675751 103.22718979782525 0
C 28.57915543394793 104.4488909384398 0
C 30.721740451657485 105.66984770611643 0
C 32.86520060601839 106.89012596326057 0
C 35.00920045529197 108.10876744748487 0
C 37.1552319365196 109.3263262633749 0
C 39.30174609078386 110.54203518373527 0
C 41.449848828543956 111.75571866443437 0
C 43.60023982694418 112.96747086570382 0
C 45.75136627874456 114.17552364411709 0
C 47.90517557269195 115.38090569447637 0
C -35.654249942616005 65.47142558734603 0
C -33.5074992343772 66.67286791458234 0
C -31.360794104945512 67.87470223146978 0
C -29.214792254920575 69.0781323293927 0
C -27.06943799744747 70.28313726165727 0
C -24.924584478610843 71.48925961003745 0
C -22.780674329961172 72.69745886089017 0
C -20.63785560963377 73.90772561549758 0
C -18.49575653665593 75.1192547198042 0
C -16.354625629738614 76.33296171196521 0
C -14.213745660008795 77.54767385694774 0
C -12.073847036045116 78.76369151831075 0
C -9.934367176801587 79.98141585779676 0
C -7.795569670858206 81.2000981197653 0
C -5.6573824796943395 82.41969756488179 0
C -3.519281571742486 83.64049781337872 0
C -1.3819412393165282 84.8618198559654 0
C 0.7555481210726405 86.08372363025408 0
C 2.8931380273595324 87.3062880756573 0
C 5.029942143822893 88.52917994374468 0
C 7.167012996024263 89.7525802307086 0
C 9.30417956292653 90.97608952791965 0
C 11.441322371987896 92.199705091715 0
C 13.578806425309562 93.423677763384 0
C 15.715939959960401 94.64729583556326 0
C 17.85377446658703 95.87099088662805 0
C 19.992190619804365 97.09449727200138 0
C 22.130131444904997 98.31759774943555 0
C 24.268914219403758 99.5406724576633 0
C 26.408872252601196 100.76276029913895 0
C 28.548303209064237 101.98446956517027 0
C 30.6888394204003 103.20574558392568 0
C 32.83082001832597 104.425387561141 0
C 34.972735877620515 105.64449021637051 0
C 37.11585938285157 106.8620970811114 0
C 39.260548469661295 108.07769929400516 0
C 41.40664532144846 109.29260853117852 0
C 43.55375460857548 110.50397199648303 0
C 45.7032658072375 111.7133970506344 0
C 47.854058450533344 112.92006382447805 0
C 50.007058718009716 114.12233105794358 0
C 52.162907830106484 115.32104391625063 0
C -35.66626885728612 63.024645992315186 0
C -33.51946980128234 64.2255742437263 0
C -31.37277392939087 65.42720945408449 0
C -29.226796541900754 66.63007551416746 0
C -27.081244370683937 67.83405005355193 0
C -24.936782043394818 69.0400843536944 0
C -22.79238756066609 70.24672171289014 0
C -20.649295126071344 71.45571563873476 0
C -18.507080715506476 72.66649068761303 0
C -16.366056977150084 73.87900337992905 0
C -14.225731211550695 75.0932133163825 0
C -12.085860726692855 76.30857846035899 0
C -9.94673005895828 77.52502147845996 0
C -7.80848597814375 78.74328977542682 0
C -5.670133870735632 79.96208403700055 0
C -3.5328060765526863 81.18183051177922 0
C -1.3953670511637568 82.40255604715219 0
C 0.7413375257997682 83.62401073463592 0
C 2.87788060907234 84.84580510234724 0
C 5.014459504323091 86.06837370907282 0
C 7.150360924627769 87.29115070537227 0
C 9.286618894338648 88.51416823168462 0
C 11.423177366837495 89.73760269019007 0
C 13.559326481382419 90.96069332447166 0
C 15.695802877152087 92.18414038424866 0
C 17.832236429895456 93.40750775307366 0
C 19.968927629368967 94.63046790138458 0
C 22.106202254507576 95.85356774096236 0
C 24.243246945119672 97.07590268940454 0
C 26.380998256728972 98.29797746981978 0
C 28.51967926981573 99.51967249973218 0
C 30.658710374226533 100.74012543047996 0
C 32.79775498632591 101.96026879852471 0
C 34.93868147871514 103.17901724723323 0
C 37.07941208263746 104.3963866641404 0
C 39.221715665213395 105.61313445284982 0
C 41.36577137706117 106.82699976668071 0
C 43.510113277520645 108.03930068240986 0
C 45.65678891531478 109.24965712728459 0
C 47.80498771167222 110.45543243286755 0
C 49.9550342608657 111.66036540869958 0
C 52.10772912991684 112.85931353136745 0
C 54.262450029919066 114.05484808902513 0
C 56.419846963554505 115.24621203995727 0
C -33.531312481402345 61.77869123555315 0
C -31.384726888685385 62.98002533386132 0
C -29.238477210817283 64.18222034100168 0
C -27.09297071480077 65.38565401220697 0
C -24.948029310677686 66.590367644686 0
C -22.803766814264087 67.79653475175031 0
C -20.660624107670213 69.00445818931419 0
C -18.51846050235457 70.21439427598554 0
C -16.376949729199982 71.42562026754011 0
C -14.236683262348254 72.63866008404663 0
C -12.097085251219944 73.85335421477399 0
C -9.957838334512479 75.06892044467277 0
C -7.819838820864448 76.28607606684045 0
C -5.681902558195226 77.50419801236502 0
C -3.545139869448213 78.72359036586808 0
C -1.408362558992797 79.94348763764017 0
C 0.7283065287731277 81.16407717295905 0
C 2.864203871819019 82.38552653555993 0
C 4.999849888218546 83.6073081657812 0
C 7.135661714168754 84.82952564654539 0
C 9.270846083943134 86.05230786689837 0
C 11.406293568073078 87.27482022749454 0
C 13.541811677587807 88.49777567839742 0
C 15.676900184920912 89.72074974099677 0
C 17.81254775279366 90.94346075671592 0
C 19.9480711376896 92.16641079074185 0
C 22.08357730215466 93.38872247853654 0
C 24.219585570402018 94.61086783076898 0
C 26.356414516834928 95.83283000067384 0
C 28.492676246095847 97.0537100713492 0
C 30.63011616083139 98.27431337233601 0
C 32.76818038371662 99.49398744312694 0
C 34.90617052606024 100.71254867900457 0
C 37.045878452198636 101.93039180443506 0
C 39.18544397872703 103.14596601364352 0
C 41.32648676660285 104.36060627347563 0
C 43.46938823529787 105.57324091235267 0
C 45.612926219725644 106.78322361759466 0
C 47.75828785517475 107.99109334391567 0
C 49.90570339311524 109.1946419214807 0
C 52.05465746891145 110.39551932999125 0
C 54.20690983646173 111.59278310476957 0
C 56.36125478627321 112.78263838101705 0
C 58.51749362858323 113.97086487612069 0
C 60.67755713722866 115.1520374907178 0
C -33.5430599692191 59.331841129838374 0
C -31.39643189023342 60.53296591957735 0
C -29.250085073722058 61.734597723047855 0
C -27.104274331103706 62.93733694731592 0
C -24.95934411047362 64.14137840551267 0
C -22.815094503640605 65.34679114914849 0
C -20.671605451738994 66.55379015092059 0
C -18.529315375341472 67.76239309124448 0
C -16.388015107949734 68.97302825195732 0
C -14.24720407463474 70.1847730681121 0
C -12.107702188221975 71.39818309517989 0
C -9.968860129134463 72.6133650691518 0
C -7.830608407260845 73.82936435801652 0
C -5.693346570227146 75.04665485576358 0