ITEM: TIMESTEP
0
ITEM: NUMBER OF ATOMS
9076
ITEM: BOX BOUNDS xy xz yz pp pp pp 
-58.57822718 117.15645437 -58.57822718 
0.00000000 101.46046570 0.00000000 
-20.000 20.000 0.000 
ITEM: ATOMS type x y z
C -56.461252909223745 100.20841940635862 0
C -54.318461875174556 101.41574976065209 0
C -54.344278634620935 98.95637311301722 0
C -52.20148760057176 100.1637034673107 0
C -50.05869656652257 101.37103382160417 0
C -54.37009539406732 96.49699646538235 0
C -52.22730436001813 97.70432681967584 0
C -50.08451332596894 98.9116571739693 0
C -47.94172229191975 100.11898752826279 0
C -45.79893125787056 101.32631788255627 0
C -52.25312111946451 95.24495017204099 0
C -50.11033008541532 96.45228052633446 0
C -47.96753905136613 97.65961088062792 0
C -45.82474801731694 98.86694123492141 0
C -43.681956983267746 100.07427158921489 0
C -41.53916594921856 101.28160194350836 0
C -52.278937878910874 92.78557352440612 0
C -50.13614684486167 93.99290387869958 0
C -47.993355810812496 95.20023423299307 0
C -45.850564776763306 96.40756458728654 0
C -43.70777374271413 97.61489494158002 0
C -41.564982708664935 98.82222529587351 0
C -39.42219167461576 100.02955565016698 0
C -37.27940064056656 101.23688600446046 0
C -50.16196360430806 91.53352723106474 0
C -48.019172570258874 92.74085758535821 0
C -45.876381536209685 93.94818793965169 0
C -43.733590502160496 95.15551829394516 0
C -41.59079946811132 96.36284864823864 0
C -39.44800843406213 97.57017900253211 0
C -37.30521740001296 98.7775093568256 0
C -35.16242636596375 99.98483971111906 0
C -33.019635331914564 101.19217006541254 0
C -50.18778036375445 89.07415058342987 0
C -48.04498932970526 90.28148093772336 0
C -45.90219829565607 91.48881129201682 0
C -43.75940726160688 92.6961416463103 0
C -41.61661622755771 93.90347200060378 0
C -39.47382519350852 95.11080235489726 0
C -37.33103415945932 96.31813270919075 0
C -35.188243125410146 97.52546306348422 0
C -33.04545209136094 98.73279341777769 0
C -30.902661057311754 99.94012377207116 0
C -28.759870023262565 101.14745412636464 0
C -48.070806089151624 87.82210429008849 0
C -45.92801505510245 89.02943464438196 0
C -43.78522402105326 90.23676499867544 0
C -41.64243298700407 91.44409535296893 0
C -39.49964195295488 92.65142570726239 0
C -37.35685091890569 93.85875606155588 0
C -35.214059884856496 95.06608641584936 0
C -33.07126885080731 96.27341677014283 0
C -30.928477816758132 97.4807471244363 0
C -28.785686782708943 98.68807747872978 0
C -26.64289574865976 99.89540783302327 0
C -24.500104714610565 101.10273818731673 0
C -48.09662284859801 85.36272764245362 0
C -45.95383181454882 86.5700579967471 0
C -43.81104078049964 87.77738835104059 0
C -41.66824974645045 88.98471870533406 0
C -39.525458712401274 90.19204905962754 0
C -37.38266767835207 91.39937941392101 0
C -35.23987664430288 92.60670976821449 0
C -33.09708561025369 93.81404012250796 0
C -30.954294576204504 95.02137047680144 0
C -28.81150354215533 96.22870083109491 0
C -26.668712508106147 97.4360311853884 0
C -24.525921474056958 98.64336153968188 0
C -22.38313044000776 99.85069189397535 0
C -20.24033940595858 101.05802224826883 0
C -45.9796485739952 84.11068134911224 0
C -43.83685753994601 85.31801170340572 0
C -41.69406650589682 86.52534205769919 0
C -39.55127547184763 87.73267241199267 0
C -37.40848443779844 88.94000276628614 0
C -35.26569340374925 90.14733312057962 0
C -33.12290236970008 91.3546634748731 0
C -30.980111335650882 92.56199382916658 0
C -28.8373203016017 93.76932418346006 0
C -26.694529267552504 94.97665453775353 0
C -24.551738233503308 96.18398489204701 0
C -22.408947199454126 97.39131524634048 0
C -20.266156165404944 98.59864560063396 0
C -18.12336513135576 99.80597595492745 0
C -15.980574097306578 101.01330630922092 0
C -46.00546533344158 81.65130470147739 0
C -43.86267429939239 82.85863505577086 0
C -41.7198832653432 84.06596541006434 0
C -39.57709223129401 85.27329576435781 0
C -37.43430119724482 86.48062611865129 0
C -35.29151016319563 87.68795647294476 0
C -33.14871912914645 88.89528682723825 0
C -31.005928095097264 90.10261718153173 0
C -28.86313706104808 91.3099475358252 0
C -26.72034602699889 92.51727789011869 0
C -24.5775549929497 93.72460824441215 0
C -22.434763958900504 94.93193859870563 0
C -20.291972924851315 96.1392689529991 0
C -18.149181890802133 97.34659930729258 0
C -16.00639085675295 98.55392966158607 0
C -13.86359982270376 99.76126001587954 0
C -11.72080878865457 100.96859037017303 0
C -43.88849105883876 80.39925840813599 0
C -41.74570002478957 81.60658876242947 0
C -39.60290899074038 82.81391911672294 0
C -37.460117956691185 84.02124947101643 0
C -35.31732692264201 85.22857982530991 0
C -33.17453588859282 86.43591017960338 0
C -31.031744854543632 87.64324053389686 0
C -28.888953820494443 88.85057088819033 0
C -26.74616278644524 90.05790124248382 0
C -24.603371752396058 91.2652315967773 0
C -22.460580718346876 92.47256195107077 0
C -20.317789684297693 93.67989230536425 0
C -18.174998650248504 94.88722265965772 0
C -16.032207616199315 96.0945530139512 0
C -13.889416582150131 97.30188336824467 0
C -11.746625548100942 98.50921372253815 0
C -9.603834514051753 99.71654407683164 0
C -7.461043480002557 100.92387443112511 0
C -43.91430781828514 77.93988176050114 0
C -41.77151678423595 79.14721211479461 0
C -39.62872575018676 80.35454246908809 0
C -37.48593471613757 81.56187282338156 0
C -35.34314368208838 82.76920317767505 0
C -33.2003526480392 83.97653353196853 0
C -31.057561613990018 85.183863886262 0
C -28.91477057994082 86.39119424055548 0
C -26.77197954589164 87.59852459484895 0
C -24.629188511842443 88.80585494914243 0
C -22.48639747779326 90.0131853034359 0
C -20.343606443744072 91.22051565772938 0
C -18.200815409694883 92.42784601202285 0
C -16.0580243756457 93.63517636631634 0
C -13.91523334159651 94.84250672060982 0
C -11.772442307547328 96.0498370749033 0
C -9.629651273498139 97.25716742919677 0
C -7.48686023944895 98.46449778349026 0
C -5.3440692053997605 99.67182813778373 0
C -3.201278171350578 100.87915849207721 0
C -41.79733354368233 76.68783546715976 0
C -39.654542509633146 77.89516582145323 0
C -37.51175147558395 79.10249617574671 0
C -35.36896044153477 80.30982653004018 0
C -33.22616940748558 81.51715688433367 0
C -31.083378373436393 82.72448723862715 0
C -28.94058733938721 83.93181759292062 0
C -26.797796305338014 85.1391479472141 0
C -24.655005271288832 86.34647830150757 0
C -22.51221423723964 87.55380865580105 0
C -20.369423203190458 88.76113901009454 0
C -18.22663216914127 89.96846936438801 0
C -16.08384113509208 91.17579971868149 0
C -13.941050101042896 92.38313007297496 0
C -11.798259066993706 93.59046042726844 0
C -9.655468032944517 94.79779078156191 0
C -7.512676998895328 96.00512113585539 0
C -5.369885964846139 97.21245149014888 0
C -3.2270949307969494 98.41978184444235 0
C -1.0843038967477672 99.62711219873583 0
C 1.0584871373014222 100.8344425530293 0
C -41.8231503031287 74.22845881952489 0
C -39.68035926907951 75.43578917381836 0
C -37.53756823503033 76.64311952811184 0
C -35.394777200981146 77.85044988240533 0
C -33.25198616693195 79.05778023669879 0
C -31.10919513288276 80.26511059099228 0
C -28.966404098833564 81.47244094528575 0
C -26.823613064784382 82.67977129957923 0
C -24.6808220307352 83.8871016538727 0
C -22.538030996686018 85.09443200816618 0
C -20.395239962636822 86.30176236245967 0
C -18.252448928587633 87.50909271675314 0
C -16.109657894538444 88.71642307104662 0
C -13.966866860489255 89.9237534253401 0
C -11.82407582644007 91.13108377963357 0
C -9.681284792390882 92.33841413392705 0
C -7.5384937583416995 93.54574448822054 0
C -5.39570272429251 94.75307484251401 0
C -3.2529116902433213 95.9604051968075 0
C -1.1101206561941317 97.16773555110098 0
C 1.0326703778550577 98.37506590539445 0
C 3.175461411904247 99.58239625968793 0
C 5.318252445953436 100.78972661398139 0
C -39.70617602852589 72.97641252618351 0
C -37.563384994476706 74.18374288047698 0
C -35.420593960427524 75.39107323477047 0
C -33.277802926378335 76.59840358906395 0
C -31.135011892329135 77.80573394335741 0
C -28.99222085827995 79.0130642976509 0
C -26.84942982423076 80.22039465194437 0
C -24.70663879018158 81.42772500623785 0
C -22.56384775613239 82.63505536053133 0
C -20.421056722083208 83.8423857148248 0
C -18.27826568803402 85.04971606911828 0
C -16.135474653984836 86.25704642341177 0
C -13.992683619935647 87.46437677770524 0
C -11.849892585886458 88.67170713199872 0
C -9.707101551837267 89.87903748629219 0
C -7.564310517788079 91.08636784058567 0
C -5.421519483738896 92.29369819487914 0
C -3.278728449689707 93.50102854917262 0
C -1.1359374156405175 94.7083589034661 0
C 1.0068536184086718 95.91568925775958 0
C 3.149644652457854 97.12301961205306 0
C 5.292435686507043 98.33034996634653 0
C 7.435226720556233 99.53768032064 0
C 9.578017754605415 100.74501067493348 0
C -39.73199278797226 70.51703587854865 0
C -37.58920175392308 71.72436623284213 0
C -35.44641071987388 72.9316965871356 0
C -33.3036196858247 74.13902694142908 0
C -31.160828651775503 75.34635729572254 0
C -29.01803761772632 76.55368765001603 0
C -26.875246583677136 77.7610180043095 0
C -24.732455549627947 78.96834835860298 0
C -22.589664515578765 80.17567871289647 0
C -20.446873481529575 81.38300906718993 0
C -18.304082447480386 82.59033942148342 0
C -16.161291413431194 83.7976697757769 0
C -14.018500379382012 85.00500013007037 0
C -11.875709345332822 86.21233048436385 0
C -9.732918311283633 87.41966083865732 0
C -7.59012727723445 88.6269911929508 0
C -5.447336243185261 89.83432154724427 0
C -3.3045452091360787 91.04165190153776 0
C -1.1617541750868892 92.24898225583122 0
C 0.9810368589623001 93.45631261012471 0
C 3.1238278930114896 94.66364296441819 0
C 5.266618927060679 95.87097331871168 0
C 7.409409961109868 97.07830367300515 0
C 9.552200995159058 98.28563402729861 0
C 11.69499202920824 99.4929643815921 0
C 13.83778306325743 100.70029473588558 0
C -37.615018513369456 69.26498958520727 0
C -35.472227479320274 70.47231993950075 0
C -33.32943644527108 71.67965029379423 0
C -31.186645411221892 72.8869806480877 0
C -29.0438543771727 74.09431100238118 0
C -26.90106334312351 75.30164135667465 0
C -24.758272309074325 76.50897171096814 0
C -22.615481275025136 77.7163020652616 0
C -20.472690240975954 78.92363241955509 0
C -18.329899206926765 80.13096277384857 0
C -16.187108172877583 81.33829312814204 0
C -14.04431713882839 82.54562348243552 0
C -11.901526104779208 83.75295383672899 0
C -9.758735070730019 84.96028419102247 0
C -7.615944036680822 86.16761454531594 0
C -5.47315300263164 87.37494489960943 0
C -3.33036196858245 88.58227525390289 0
C -1.187570934533268 89.78960560819638 0
C 0.9552200995159214 90.99693596248986 0
C 3.0980111335651106 92.20426631678335 0
C 5.2408021676143 93.41159667107682 0
C 7.383593201663483 94.6189270253703 0
C 9.526384235712671 95.82625737966377 0
C 11.669175269761862 97.03358773395725 0
C 13.811966303811051 98.24091808825072 0
C 15.954757337860237 99.4482484425442 0
C 18.097548371909422 100.65557879683767 0
C -37.640835272815835 66.8056129375724 0
C -35.49804423876665 68.0129432918659 0
C -33.355253204717464 69.22027364615937 0
C -31.212462170668275 70.42760400045285 0
C -29.069671136619093 71.63493435474632 0
C -26.9268801025699 72.8422647090398 0
C -24.78408906852071 74.04959506333327 0
C -22.641298034471518 75.25692541762675 0
C -20.49850700042233 76.46425577192022 0
C -18.355715966373147 77.6715861262137 0
C -16.212924932323958 78.87891648050717 0
C -14.070133898274776 80.08624683480066 0
C -11.92734286422558 81.29357718909414 0
C -9.784551830176397 82.50090754338763 0
C -7.641760796127207 83.7082378976811 0
C -5.498969762078018 84.91556825197456 0
C -3.356178728028836 86.12289860626805 0
C -1.2133876939796466 87.33022896056153 0
C 0.9294033400695426 88.537559314855 0
C 3.072194374118732 89.74488966914848 0
C 5.214985408167921 90.95222002344197 0
C 7.35777644221711 92.15955037773544 0
C 9.500567476266292 93.36688073202892 0
C 11.643358510315482 94.57421108632239 0
C 13.786149544364672 95.78154144061587 0
C 15.928940578413858 96.98887179490934 0
C 18.071731612463047 98.19620214920282 0
C 20.21452264651223 99.4035325034963 0
C 22.35731368056142 100.61086285778977 0
C -35.523860998213024 65.55356664423101 0
C -33.381069964163835 66.7608969985245 0
C -31.23827893011465 67.96822735281798 0
C -29.095487896065453 69.17555770711145 0
C -26.95269686201627 70.38288806140493 0
C -24.80990582796708 71.5902184156984 0
C -22.66711479391789 72.79754876999188 0
C -20.524323759868704 74.00487912428537 0
C -18.381532725819515 75.21220947857884 0
C -16.238741691770333 76.41953983287232 0
C -14.095950657721144 77.62687018716579 0
C -11.953159623671961 78.83420054145927 0
C -9.810368589622769 80.04153089575274 0
C -7.66757755557358 81.24886125004622 0
C -5.52478652152439 82.4561916043397 0
C -3.3819954874752005 83.66352195863317 0
C -1.2392044534260185 84.87085231292664 0
C 0.903586580623171 86.07818266722012 0
C 3.046377614672353 87.28551302151361 0
C 5.189168648721543 88.49284337580708 0
C 7.331959682770732 89.70017373010057 0
C 9.474750716819921 90.90750408439405 0
C 11.617541750869107 92.11483443868752 0
C 13.760332784918296 93.322164792981 0
C 15.903123818967487 94.52949514727447 0
C 18.04591485301667 95.73682550156795 0
C 20.188705887065858 96.94415585586142 0
C 22.331496921115043 98.1514862101549 0
C 24.474287955164232 99.35881656444838 0
C 26.617078989213415 100.56614691874185 0
C -35.549677757659396 63.09418999659616 0
C -33.406886723610214 64.30152035088963 0
C -31.264095689561028 65.50885070518312 0
C -29.12130465551184 66.7161810594766 0
C -26.97851362146265 67.92351141377007 0
C -24.835722587413468 69.13084176806355 0
C -22.692931553364275 70.33817212235702 0
C -20.550140519315086 71.5455024766505 0
C -18.407349485265893 72.75283283094399 0
C -16.264558451216704 73.96016318523746 0
C -14.121767417167522 75.16749353953094 0
C -11.978976383118333 76.37482389382441 0
C -9.83618534906915 77.58215424811789 0
C -7.693394315019958 78.78948460241136 0
C -5.550603280970776 79.99681495670484 0
C -3.4078122469215866 81.20414531099831 0
C -1.2650212128723972 82.41147566529179 0
C 0.8777698211767923 83.61880601958528 0
C 3.0205608552259817 84.82613637387875 0
C 5.163351889275164 86.03346672817223 0
C 7.306142923324353 87.2407970824657 0
C 9.448933957373542 88.4481274367592 0
C 11.591724991422732 89.65545779105267 0
C 13.734516025471914 90.86278814534614 0
C 15.877307059521103 92.07011849963962 0
C 18.020098093570294 93.2774488539331 0
C 20.16288912761948 94.48477920822657 0
C 22.30568016166867 95.69210956252005 0
C 24.44847119571785 96.89943991681352 0
C 26.59126222976704 98.106770271107 0
C 28.734053263816225 99.31410062540047 0
C 30.876844297865414 100.52143097969395 0
C -33.43270348305658 61.84214370325477 0
C -31.2899124490074 63.049474057548245 0
C -29.147121414958207 64.25680441184173 0
C -27.004330380909018 65.4641347661352 0
C -24.86153934685983 66.67146512042868 0
C -22.718748312810646 67.87879547472215 0
C -20.575957278761454 69.08612582901563 0
C -18.433166244712265 70.2934561833091 0
C -16.29037521066308 71.5007865376026 0
C -14.147584176613892 72.70811689189607 0
C -12.004793142564708 73.91544724618954 0
C -9.862002108515519 75.12277760048302 0
C -7.719211074466337 76.3301079547765 0
C -5.576420040417133 77.53743830906998 0
C -3.433629006367951 78.74476866336346 0
C -1.2908379723187617 79.95209901765693 0
C 0.8519530617304277 81.15942937195041 0
C 2.99474409577961 82.36675972624388 0
C 5.137535129828799 83.57409008053736 0
C 7.280326163877982 84.78142043483084 0
C 9.423117197927171 85.98875078912431 0
C 11.565908231976364 87.1960811434178 0
C 13.708699266025553 88.40341149771128 0
C 15.851490300074735 89.61074185200476 0
C 17.994281334123926 90.81807220629824 0
C 20.137072368173115 92.02540256059171 0
C 22.2798634022223 93.23273291488519 0
C 24.42265443627149 94.44006326917867 0
C 26.56544547032067 95.64739362347214 0
C 28.70823650436986 96.85472397776562 0
C 30.851027538419043 98.06205433205909 0
C 32.993818572468236 99.26938468635257 0
C 35.13660960651743 100.47671504064606 0
C -33.458520242502956 59.382767055619915 0
C -31.31572920845377 60.59009740991339 0
C -29.17293817440459 61.79742776420687 0
C -27.030147140355403 63.004758118500355 0
C -24.887356106306214 64.21208847279382 0
C -22.744565072257025 65.4194188270873 0
C -20.601774038207843 66.62674918138079 0
C -18.458983004158643 67.83407953567426 0
C -16.316191970109454 69.04140988996774 0
C -14.17340093606027 70.24874024426121 0
C -12.030609902011081 71.45607059855469 0
C -9.887818867961897 72.66340095284816 0
C -7.745027833912708 73.87073130714164 0
C -5.602236799863526 75.07806166143511 0
C -3.459445765814337 76.28539201572859 0
C -1.3166547317651547 77.49272237002207 0
C 0.8261363022840348 78.70005272431554 0
C 2.9689273363332243 79.90738307860902 0
C 5.11171837038241 81.1147134329025 0
C 7.254509404431599 82.32204378719598 0
C 9.397300438480785 83.52937414148946 0
C 11.540091472529975 84.73670449578293 0
C 13.682882506579164 85.94403485007642 0
C 15.825673540628353 87.1513652043699 0
C 17.96846457467754 88.35869555866337 0
C 20.11125560872673 89.56602591295685 0
C 22.25404664277592 90.77335626725032 0
C 24.3968376768251 91.9806866215438 0
C 26.53962871087429 93.18801697583727 0
C 28.68241974492347 94.39534733013075 0
C 30.825210778972664 95.60267768442422 0
C 32.96800181302185 96.8100080387177 0
C 35.11079284707104 98.01733839301117 0
C 37.253583881120235 99.22466874730466 0
C 39.39637491516942 100.43199910159814 0
C -31.341545967900153 58.130720762278536 0
C -29.198754933850964 59.33805111657201 0
C -27.05596389980178 60.545381470865486 0
C -24.913172865752596 61.75271182515897 0
C -22.770381831703407 62.960042179452444 0
C -20.627590797654218 64.16737253374592 0
C -18.484799763605036 65.3747028880394 0
C -16.342008729555843 66.58203324233287 0
C -14.199217695506656 67.78936359662634 0
C -12.05642666145747 68.99669395091983 0
C -9.913635627408281 70.20402430521331 0
C -7.770844593359091 71.41135465950678 0
C -5.628053559309901 72.61868501380026 0
C -3.485262525260719 73.82601536809373 0
C -1.3424714912115263 75.03334572238721 0
C 0.8003195428376559 76.2406760766807 0
C 2.9431105768868453 77.44800643097417 0
C 5.085901610936035 78.65533678526765 0
C 7.2286926449852205 79.86266713956113 0
C 9.37148367903441 81.0699974938546 0
C 11.514274713083593 82.27732784814808 0
C 13.657065747132782 83.48465820244155 0
C 15.79985678118197 84.69198855673504 0
C 17.942647815231165 85.89931891102852 0
C 20.085438849280347 87.10664926532199 0
C 22.228229883329536 88.31397961961547 0
C 24.371020917378726 89.52130997390894 0
C 26.513811951427908 90.72864032820242 0
C 28.656602985477097 91.93597068249589 0
C 30.799394019526282 93.14330103678937 0
C 32.94218505357547 94.35063139108284 0
C 35.08497608762465 95.55796174537633 0
C 37.22776712167384 96.7652920996698 0
C 39.37055815572304 97.97262245396328 0
C 41.51334918977222 99.17995280825677 0
C 43.65614022382142 100.38728316255023 0
C -31.367362727346524 55.671344114643674 0
C -29.224571693297335 56.87867446893715 0
C -27.081780659248146 58.086004823230624 0
C -24.938989625198964 59.293335177524106 0
C -22.79619859114978 60.50066553181759 0
C -20.65340755710059 61.707995886111064 0
C -18.5106165230514 62.91532624040453 0
C -16.36782548900221 64.12265659469801 0
C -14.22503445495302 65.32998694899149 0
C -12.082243420903831 66.53731730328496 0
C -9.939452386854645 67.74464765757844 0
C -7.796661352805455 68.95197801187192 0
C -5.653870318756273 70.1593083661654 0
C -3.5110792847070837 71.36663872045887 0
C -1.3682882506579015 72.57396907475236 0
C 0.774502783391295 73.78129942904583 0
C 2.9172938174404774 74.9886297833393 0
C 5.060084851489667 76.19596013763278 0
C 7.202875885538856 77.40329049192626 0
C 9.345666919588039 78.61062084621973 0
C 11.488457953637232 79.8179512005132 0
C 13.631248987686414 81.0252815548067 0
C 15.774040021735603 82.23261190910017 0
C 17.916831055784794 83.43994226339366 0
C 20.059622089833983 84.64727261768714 0
C 22.20241312388317 85.85460297198061 0
C 24.345204157932358 87.06193332627409 0
C 26.487995191981547 88.26926368056756 0
C 28.63078622603073 89.47659403486104 0
C 30.773577260079918 90.68392438915451 0
C 32.9163682941291 91.89125474344799 0
C 35.05915932817829 93.09858509774146 0
C 37.20195036222748 94.30591545203494 0
C 39.34474139627667 95.51324580632841 0
C 41.487532430325864 96.7205761606219 0
C 43.630323464375046 97.92790651491538 0
C 45.773114498424235 99.13523686920885 0
C 47.915905532473424 100.34256722350233 0
C -29.250388452743717 54.419297821302294 0
C -27.107597418694528 55.62662817559577 0
C -24.96480638464534 56.833958529889244 0
C -22.822015350596157 58.04128888418272 0
C -20.67922431654697 59.2486192384762 0
C -18.536433282497782 60.45594959276968 0
C -16.393642248448593 61.66327994706315 0
C -14.25085121439941 62.87061030135663 0
C -12.10806018035022 64.07794065565011 0
C -9.965269146301031 65.28527100994357 0
C -7.822478112251837 66.49260136423706 0
C -5.679687078202648 67.69993171853054 0
C -3.5368960441534663 68.90726207282401 0
C -1.3941050101042767 70.11459242711749 0
C 0.7486860239449056 71.32192278141096 0
C 2.891477057994095 72.52925313570444 0
C 5.034268092043277 73.73658348999793 0
C 7.177059126092467 74.9439138442914 0
C 9.319850160141659 76.15124419858488 0
C 11.462641194190843 77.35857455287835 0
C 13.605432228240032 78.56590490717183 0
C 15.748223262289214 79.7732352614653 0
C 17.8910142963384 80.98056561575878 0
C 20.033805330387597 82.18789597005227 0
C 22.176596364436787 83.39522632434574 0
C 24.31938739848597 84.60255667863922 0
C 26.462178432535158 85.80988703293269 0
C 28.604969466584347 87.01721738722617 0
C 30.74776050063353 88.22454774151964 0
C 32.89055153468272 89.43187809581312 0
C 35.033342568731904 90.6392084501066 0
C 37.17613360278109 91.84653880440007 0
C 39.318924636830275 93.05386915869356 0
C 41.461715670879464 94.26119951298702 0
C 43.60450670492866 95.46852986728051 0
C 45.74729773897785 96.67586022157398 0
C 47.89008877302704 97.88319057586746 0
C 50.03287980707623 99.09052093016093 0
C 52.17567084112541 100.29785128445442 0
C -29.276205212190085 51.959921173667425 0
C -27.133414178140903 53.1672515279609 0
C -24.990623144091714 54.374581882254375 0
C -22.847832110042525 55.58191223654785 0
C -20.705041075993343 56.789242590841326 0
C -18.562250041944157 57.99657294513481 0
C -16.41945900789496 59.20390329942828 0
C -14.27666797384577 60.41123365372176 0
C -12.133876939796588 61.61856400801524 0
C -9.991085905747399 62.825894362308716 0
C -7.84829487169821 64.03322471660219 0
C -5.705503837649023 65.24055507089567 0
C -3.562712803599834 66.44788542518914 0
C -1.4199217695506519 67.65521577948263 0
C 0.7228692644985375 68.8625461337761 0
C 2.8656602985477235 70.06987648806958 0
C 5.008451332596916 71.27720684236306 0
C 7.151242366646098 72.48453719665653 0
C 9.294033400695287 73.69186755095001 0
C 11.436824434744477 74.89919790524348 0
C 13.579615468793664 76.10652825953696 0
C 15.722406502842853 77.31385861383043 0
C 17.865197536892033 78.52118896812392 0
C 20.007988570941222 79.72851932241738 0
C 22.15077960499042 80.93584967671089 0
C 24.293570639039608 82.14318003100436 0
C 26.43636167308879 83.35051038529784 0
C 28.57915270713798 84.55784073959131 0
C 30.721943741187168 85.76517109388479 0
C 32.86473477523635 86.97250144817826 0
C 35.00752580928554 88.17983180247174 0
C 37.15031684333472 89.38716215676521 0
C 39.29310787738392 90.59449251105869 0
C 41.4358989114331 91.80182286535216 0
C 43.57868994548229 93.00915321964564 0
C 45.721480979531485 94.21648357393913 0
C 47.86427201358067 95.4238139282326 0
C 50.007063047629856 96.63114428252608 0
C 52.149854081679045 97.83847463681956 0
C 54.29264511572823 99.04580499111303 0
C 56.435436149777416 100.2531353454065 0
C -27.159230937587278 50.707874880326045 0
C -25.016439903538092 51.91520523461952 0
C -22.873648869488903 53.122535588912996 0
C -20.730857835439714 54.32986594320647 0
C -18.588066801390532 55.537196297499946 0
C -16.445275767341347 56.744526651793436 0
C -14.302484733292156 57.95185700608691 0
C -12.159693699242967 59.159187360380386 0
C -10.016902665193784 60.36651771467386 0
C -7.874111631144595 61.57384806896734 0
C -5.731320597095403 62.78117842326081 0
C -3.5885295630462166 63.988508777554294 0
C -1.445738528997027 65.19583913184778 0
C 0.6970525050521588 66.40316948614125 0
C 2.839843539101348 67.61049984043473 0
C 4.982634573150531 68.8178301947282 0
C 7.125425607199723 70.02516054902168 0
C 9.268216641248909 71.23249090331517 0
C 11.411007675298098 72.43982125760863 0
C 13.553798709347287 73.6471516119021 0
C 15.696589743396471 74.85448196619559 0
C 17.83938077744566 76.06181232048905 0
C 19.982171811494844 77.26914267478254 0
C 22.124962845544033 78.47647302907602 0
C 24.267753879593226 79.68380338336951 0
C 26.410544913642415 80.89113373766298 0
C 28.553335947691597 82.09846409195646 0
C 30.696126981740786 83.30579444624993 0
C 32.83891801578998 84.51312480054341 0
C 34.98170904983916 85.72045515483688 0
C 37.12450008388835 86.92778550913036 0
C 39.26729111793753 88.13511586342383 0
C 41.41008215198672 89.34244621771731 0
C 43.5528731860359 90.54977657201079 0
C 45.69566422008509 91.75710692630426 0
C 47.838455254134296 92.96443728059775 0
C 49.98124628818348 94.17176763489122 0
C 52.12403732223267 95.3790979891847 0
C 54.266828356281856 96.58642834347818 0
C 56.40961939033104 97.79375869777165 0
C 58.55241042438022 99.00108905206514 0
C -27.18504769703366 48.248498232691176 0
C -25.04225666298447 49.45582858698465 0
C -22.89946562893528 50.663158941278134 0
C -20.756674594886096 51.87048929557161 0
C -18.613883560836907 53.07781964986509 0
C -16.471092526787718 54.28515000415856 0
C -14.328301492738523 55.49248035845204 0
C -12.185510458689341 56.699810712745524 0
C -10.042719424640152 57.907141067039 0
C -7.899928390590963 59.11447142133247 0
C -5.757137356541781 60.32180177562595 0
C -3.6143463224925987 61.529132129919425 0
C -1.4715552884434058 62.73646248421291 0
C 0.6712357456057871 63.94379283850638 0
C 2.814026779654969 65.15112319279986 0
C 4.956817813704158 66.35845354709333 0
C 7.099608847753341 67.56578390138681 0
C 9.242399881802537 68.7731142556803 0
C 11.385190915851723 69.98044460997377 0
C 13.527981949900912 71.18777496426725 0
C 15.670772983950101 72.39510531856072 0
C 17.813564017999283 73.6024356728542 0
C 19.956355052048472 74.80976602714767 0
C 22.099146086097658 76.01709638144116 0
C 24.241937120146847 77.22442673573464 0
C 26.38472815419604 78.43175709002813 0
C 28.52751918824523 79.6390874443216 0
C 30.67031022229441 80.84641779861508 0
C 32.8131012563436 82.05374815290855 0
C 34.95589229039279 83.26107850720203 0
C 37.09868332444197 84.4684088614955 0
C 39.24147435849116 85.67573921578898 0
C 41.38426539254035 86.88306957008245 0
C 43.52705642658954 88.09039992437593 0
C 45.66984746063872 89.2977302786694 0
C 47.81263849468791 90.50506063296288 0
C 49.955429528737106 91.71239098725637 0
C 52.09822056278629 92.91972134154985 0
C 54.24101159683548 94.12705169584332 0
C 56.38380263088467 95.3343820501368 0
C 58.526593664933856 96.54171240443027 0
C 60.66938469898304 97.74904275872376 0
C -25.068073422430835 46.99645193934979 0
C -22.925282388381653 48.20378229364327 0
C -20.782491354332468 49.411112647936754 0
C -18.63970032028328 50.61844300223023 0
C -16.49690928623409 51.825773356523705 0
C -14.354118252184907 53.03310371081718 0
C -12.21132721813572 54.24043406511067 0
C -10.068536184086527 55.447764419404145 0
C -7.925745150037338 56.65509477369761 0
C -5.782954115988156 57.862425127991095 0
C -3.640163081938967 59.06975548228457 0
C -1.497372047889781 60.277085836578046 0
C 0.645418986159412 61.48441619087153 0
C 2.7882100202086013 62.691746545165 0
C 4.931001054257783 63.89907689945848 0
C 7.0737920883069725 65.10640725375195 0
C 9.216583122356155 66.31373760804543 0
C 11.359374156405345 67.5210679623389 0
C 13.50216519045453 68.72839831663238 0
C 15.64495622450372 69.93572867092585 0
C 17.78774725855291 71.14305902521933 0
C 19.93053829260209 72.35038937951282 0
C 22.073329326651283 73.5577197338063 0
C 24.216120360700465 74.76505008809977 0
C 26.358911394749654 75.97238044239324 0
C 28.501702428798847 77.17971079668673 0
C 30.644493462848036 78.38704115098021 0
C 32.78728449689722 79.59437150527368 0
C 34.93007553094641 80.80170185956716 0
C 37.0728665649956 82.00903221386064 0
C 39.21565759904478 83.21636256815411 0
C 41.35844863309397 84.42369292244759 0
C 43.50123966714315 85.63102327674106 0
C 45.64403070119234 86.83835363103454 0
C 47.78682173524153 88.04568398532801 0
C 49.92961276929072 89.25301433962149 0
C 52.07240380333992 90.46034469391498 0
C 54.2151948373891 91.66767504820845 0
C 56.35798587143829 92.87500540250193 0
C 58.50077690548748 94.0823357567954 0
C 60.64356793953666 95.28966611108888 0
C -25.093890181877224 44.537075291714935 0
C -22.951099147828035 45.74440564600841 0
C -20.808308113778853 46.95173600030189 0
C -18.66551707972966 48.159066354595375 0
C -16.52272604568047 49.36639670888884 0
C -14.379935011631282 50.57372706318232 0
C -12.2371439775821 51.7810574174758 0
C -10.094352943532913 52.98838777176928 0
C -7.951561909483725 54.19571812606276 0
C -5.808770875434535 55.40304848035623 0
C -3.665979841385349 56.61037883464971 0
C -1.5231888073361597 57.817709188943184 0
C 0.619602226713026 59.02503954323666 0
C 2.7623932607622153 60.23236989753015 0
C 4.905184294811405 61.439700251823616 0
C 7.047975328860587 62.6470306061171 0
C 9.190766362909777 63.854360960410574 0
C 11.333557396958962 65.06169131470405 0
C 13.476348431008155 66.26902166899752 0
C 15.619139465057337 67.47635202329101 0
C 17.761930499106526 68.68368237758449 0
C 19.90472153315572 69.89101273187796 0
C 22.0475125672049 71.09834308617144 0
C 24.19030360125409 72.30567344046491 0
C 26.333094635303272 73.51300379475839 0
C 28.47588566935246 74.72033414905187 0
C 30.618676703401654 75.92766450334535 0
C 32.76146773745084 77.13499485763883 0
C 34.904258771500025 78.3423252119323 0