ITEM: TIMESTEP
0
ITEM: NUMBER OF ATOMS
1876
ITEM: BOX BOUNDS xy xz yz pp pp pp 
-26.63209905 53.26419811 -26.63209905 
0.00000000 46.12814867 0.00000000 
-20.000 20.000 0.000 
ITEM: ATOMS type x y z
C -24.531059256181276 44.84954327269926 0
C -22.37323459938756 46.0297944114545 0
C -22.430019458776865 43.57093787238107 0
C -20.27219480198314 44.75118901113632 0
C -18.114370145189415 45.931440149891564 0
C -22.48680431816617 41.11208133330765 0
C -20.32897966137245 42.292332472062895 0
C -18.171155004578726 43.47258361081814 0
C -16.013330347784997 44.65283474957338 0
C -13.855505690991283 45.83308588832863 0
C -20.385764520761754 39.83347593298947 0
C -18.227939863968036 41.01372707174472 0
C -16.070115207174315 42.19397821049996 0
C -13.912290550380584 43.3742293492552 0
C -11.754465893586868 44.55448048801045 0
C -9.596641236793142 45.73473162676569 0
C -20.442549380151064 37.37461939391604 0
C -18.284724723357343 38.554870532671295 0
C -16.126900066563618 39.73512167142653 0
C -13.969075409769891 40.91537281018178 0
C -11.811250752976164 42.095623948937025 0
C -9.653426096182447 43.27587508769226 0
C -7.495601439388721 44.45612622644751 0
C -5.337776782594995 45.636377365202755 0
C -18.34150958274665 36.096013993597865 0
C -16.183684925952928 37.27626513235311 0
C -14.0258602691592 38.45651627110835 0
C -11.86803561236548 39.636767409863594 0
C -9.710210955571753 40.81701854861884 0
C -7.552386298778028 41.997269687374086 0
C -5.394561641984306 43.177520826129324 0
C -3.2367369851905803 44.35777196488457 0
C -1.078912328396862 45.53802310363981 0
C -18.398294442135956 33.63715745452444 0
C -16.240469785342235 34.81740859327969 0
C -14.08264512854851 35.99765973203493 0
C -11.924820471754787 37.17791087079017 0
C -9.766995814961064 38.35816200954542 0
C -7.609171158167338 39.53841314830066 0
C -5.451346501373617 40.71866428705591 0
C -3.293521844579895 41.89891542581114 0
C -1.1356971877861695 43.079166564566385 0
C 1.0221274690075526 44.25941770332163 0
C 3.1799521258012784 45.43966884207688 0
C -16.297254644731545 32.358552054206264 0
C -14.13942998793782 33.5388031929615 0
C -11.981605331144094 34.71905433171675 0
C -9.82378067435037 35.899305470471994 0
C -7.66595601755665 37.07955660922724 0
C -5.508131360762925 38.25980774798248 0
C -3.3503067039692027 39.440058886737724 0
C -1.192482047175477 40.62031002549297 0
C 0.9653426096182487 41.800561164248215 0
C 3.123167266411967 42.980812303003454 0
C 5.280991923205694 44.1610634417587 0
C 7.438816579999413 45.34131458051394 0
C -16.354039504120852 29.899695515132837 0
C -14.196214847327129 31.07994665388808 0
C -12.03839019053341 32.260197792643325 0
C -9.880565533739682 33.44044893139857 0
C -7.722740876945956 34.62070007015381 0
C -5.564916220152235 35.800951208909055 0
C -3.40709156335851 36.9812023476643 0
C -1.249266906564788 38.161453486419546 0
C 0.9085577502289341 39.341704625174785 0
C 3.0663824070226613 40.52195576393003 0
C 5.224207063816382 41.70220690268527 0
C 7.382031720610107 42.882458041440515 0
C 9.539856377403828 44.06270918019575 0
C 11.697681034197553 45.242960318951 0
C -14.252999706716441 28.621090114814656 0
C -12.095175049922712 29.801341253569902 0
C -9.937350393128993 30.981592392325144 0
C -7.779525736335267 32.161843531080386 0
C -5.621701079541543 33.34209466983563 0
C -3.463876422747823 34.52234580859088 0
C -1.3060517659540938 35.70259694734612 0
C 0.8517728908396266 36.88284808610136 0
C 3.0095975476333523 38.06309922485661 0
C 5.167422204427078 39.24335036361185 0
C 7.325246861220799 40.42360150236709 0
C 9.483071518014524 41.60385264112234 0
C 11.640896174808244 42.78410377987758 0
C 13.798720831601969 43.96435491863283 0
C 15.956545488395696 45.14460605738807 0
C -14.309784566105748 26.162233575741237 0
C -12.151959909312025 27.34248471449648 0
C -9.9941352525183 28.52273585325172 0
C -7.83631059572458 29.702986992006963 0
C -5.678485938930851 30.88323813076221 0
C -3.5206612821371266 32.063489269517454 0
C -1.3628366253434065 33.24374040827269 0
C 0.7949880314503192 34.42399154702794 0
C 2.9528126882440393 35.604242685783184 0
C 5.110637345037765 36.78449382453842 0
C 7.268462001831491 37.96474496329367 0
C 9.42628665862521 39.144996102048914 0
C 11.584111315418937 40.32524724080416 0
C 13.741935972212657 41.5054983795594 0
C 15.899760629006382 42.685749518314644 0
C 18.05758528580011 43.86600065706989 0
C 20.21540994259383 45.04625179582513 0
C -12.20874476870133 24.883628175423052 0
C -10.050920111907608 26.063879314178298 0
C -7.893095455113884 27.24413045293354 0
C -5.73527079832016 28.424381591688785 0
C -3.5774461415264343 29.604632730444028 0
C -1.4196214847327122 30.784883869199273 0
C 0.7382031720610116 31.965135007954515 0
C 2.8960278288547374 33.14538614670976 0
C 5.053852485648459 34.325637285465 0
C 7.2116771424421815 35.50588842422024 0
C 9.369501799235907 36.686139562975484 0
C 11.527326456029627 37.86639070173073 0
C 13.685151112823354 39.046641840485975 0
C 15.842975769617073 40.226892979241214 0
C 18.000800426410798 41.40714411799646 0
C 20.158625083204527 42.587395256751705 0
C 22.316449739998244 43.767646395506944 0
C 24.47427439679197 44.94789753426219 0
C -12.265529628090638 22.42477163634963 0
C -10.107704971296913 23.605022775104874 0
C -7.949880314503193 24.785273913860117 0
C -5.792055657709471 25.96552505261536 0
C -3.6342310009157472 27.1457761913706 0
C -1.4764063441220214 28.326027330125847 0
C 0.6814183126717024 29.50627846888109 0
C 2.8392429694654244 30.68652960763633 0
C 4.99706762625915 31.866780746391576 0
C 7.154892283052872 33.04703188514682 0
C 9.312716939846597 34.22728302390207 0
C 11.470541596640324 35.40753416265731 0
C 13.628366253434043 36.58778530141255 0
C 15.78619091022777 37.7680364401678 0
C 17.944015567021488 38.948287578923036 0
C 20.101840223815216 40.12853871767828 0
C 22.25966488060894 41.30878985643353 0
C 24.417489537402663 42.489040995188766 0
C 26.575314194196388 43.66929213394401 0
C -10.164489830686225 21.146166236031448 0
C -8.006665173892499 22.32641737478669 0
C -5.848840517098778 23.506668513541936 0
C -3.6910158603050545 24.686919652297178 0
C -1.5331912035113326 25.86717079105242 0
C 0.6246334532823931 27.047421929807665 0
C 2.7824581100761168 28.227673068562908 0
C 4.940282766869839 29.407924207318153 0
C 7.098107423663565 30.588175346073395 0
C 9.255932080457288 31.768426484828645 0
C 11.413756737251012 32.94867762358388 0
C 13.571581394044737 34.12892876233913 0
C 15.729406050838456 35.30917990109437 0
C 17.887230707632185 36.48943103984961 0
C 20.045055364425902 37.66968217860485 0
C 22.202880021219627 38.8499333173601 0
C 24.360704678013356 40.03018445611534 0
C 26.518529334807074 41.21043559487059 0
C 28.6763539916008 42.390686733625834 0
C -10.221274690075532 18.68730969695802 0
C -8.063450033281809 19.867560835713267 0
C -5.905625376488082 21.047811974468512 0
C -3.7478007196943603 22.228063113223754 0
C -1.5899760629006365 23.408314251978997 0
C 0.5678485938930856 24.58856539073424 0
C 2.7256732506868113 25.768816529489484 0
C 4.883497907480535 26.949067668244727 0
C 7.041322564274257 28.129318806999972 0
C 9.199147221067983 29.309569945755218 0
C 11.356971877861705 30.48982108451046 0
C 13.514796534655428 31.6700722232657 0
C 15.672621191449153 32.850323362020944 0
C 17.830445848242874 34.03057450077618 0
C 19.9882705050366 35.21082563953143 0
C 22.146095161830317 36.39107677828667 0
C 24.303919818624045 37.57132791704191 0
C 26.46174447541777 38.75157905579716 0
C 28.619569132211492 39.931830194552404 0
C -8.120234892671117 17.408704296639844 0
C -5.962410235877393 18.588955435395086 0
C -3.804585579083669 19.76920657415033 0
C -1.6467609222899475 20.94945771290557 0
C 0.5110637345037763 22.129708851660816 0
C 2.6688883912974983 23.309959990416058 0
C 4.826713048091225 24.490211129171303 0
C 6.984537704884948 25.670462267926546 0
C 9.14236236167867 26.850713406681788 0
C 11.300187018472396 28.030964545437033 0
C 13.458011675266118 29.21121568419228 0
C 15.615836332059844 30.39146682294752 0
C 17.77366098885357 31.571717961702767 0
C 19.93148564564729 32.751969100458005 0
C 22.089310302441014 33.93222023921325 0
C 24.247134959234735 35.1124713779685 0
C 26.40495961602846 36.29272251672374 0
C 28.56278427282219 37.47297365547899 0
C 30.720608929615906 38.65322479423423 0
C -8.177019752060426 14.949847757566419 0
C -6.019195095266705 16.130098896321662 0
C -3.861370438472978 17.310350035076905 0
C -1.703545781679255 18.49060117383215 0
C 0.4542788751144671 19.670852312587392 0
C 2.612103531908191 20.851103451342635 0
C 4.769928188701914 22.031354590097877 0
C 6.92775284549564 23.211605728853122 0
C 9.085577502289363 24.391856867608364 0
C 11.243402159083084 25.57210800636361 0
C 13.40122681587681 26.752359145118856 0
C 15.559051472670532 27.932610283874098 0
C 17.716876129464257 29.11286142262934 0
C 19.874700786257982 30.293112561384586 0
C 22.032525443051703 31.473363700139824 0
C 24.19035009984543 32.65361483889507 0
C 26.348174756639146 33.83386597765031 0
C 28.505999413432875 35.01411711640556 0
C 30.6638240702266 36.1943682551608 0
C -6.075979954656012 13.67124235724824 0
C -3.91815529786229 14.851493496003481 0
C -1.7603306410685633 16.031744634758727 0
C 0.3974940157251596 17.21199577351397 0
C 2.5553186725188826 18.39224691226921 0
C 4.713143329312605 19.572498051024457 0
C 6.870967986106328 20.7527491897797 0
C 9.028792642900054 21.933000328534945 0
C 11.186617299693777 23.113251467290187 0
C 13.3444419564875 24.29350260604543 0
C 15.502266613281225 25.473753744800675 0
C 17.660091270074947 26.65400488355592 0
C 19.817915926868668 27.83425602231116 0
C 21.975740583662397 29.014507161066405 0
C 24.133565240456115 30.194758299821643 0
C 26.291389897249843 31.37500943857689 0
C 28.44921455404356 32.55526057733213 0
C 30.60703921083729 33.73551171608737 0
C 32.764863867631014 34.91576285484262 0
C -6.132764814045319 11.212385818174814 0
C -3.9749401572515963 12.392636956930058 0
C -1.8171155004578736 13.5728880956853 0
C 0.3407091563358512 14.753139234440544 0
C 2.498533813129575 15.933390373195788 0
C 4.6563584699232985 17.113641511951034 0
C 6.814183126717022 18.293892650706276 0
C 8.972007783510744 19.474143789461518 0
C 11.12983244030447 20.654394928216764 0
C 13.287657097098194 21.834646066972006 0
C 15.445481753891917 23.014897205727248 0
C 17.603306410685644 24.195148344482494 0
C 19.761131067479365 25.37539948323774 0
C 21.918955724273086 26.55565062199298 0
C 24.076780381066815 27.735901760748227 0
C 26.234605037860533 28.916152899503466 0
C 28.39242969465426 30.09640403825871 0
C 30.55025435144798 31.276655177013954 0
C 32.708079008241704 32.456906315769196 0
C -4.031725016640904 9.933780417856633 0
C -1.8739003598471802 11.114031556611877 0
C 0.2839242969465428 12.29428269536712 0
C 2.4417489537402677 13.474533834122363 0
C 4.599573610533992 14.654784972877609 0
C 6.757398267327714 15.83503611163285 0
C 8.915222924121437 17.01528725038809 0
C 11.073047580915159 18.195538389143334 0
C 13.230872237708885 19.37578952789858 0
C 15.388696894502608 20.556040666653825 0
C 17.54652155129633 21.736291805409067 0
C 19.704346208090058 22.916542944164313 0
C 21.86217086488378 24.096794082919555 0
C 24.0199955216775 25.277045221674797 0
C 26.17782017847123 26.457296360430043 0
C 28.335644835264947 27.637547499185285 0
C 30.493469492058676 28.81779863794053 0
C 32.651294148852394 29.99804977669577 0
C 34.80911880564612 31.178300915451015 0
C -4.088509876030213 7.474923878783209 0
C -1.930685219236489 8.655175017538452 0
C 0.22713943755723354 9.835426156293696 0
C 2.384964094350957 11.015677295048938 0
C 4.542788751144681 12.195928433804182 0
C 6.700613407938405 13.376179572559428 0
C 8.858438064732129 14.55643071131467 0
C 11.016262721525852 15.736681850069912 0
C 13.174087378319573 16.916932988825156 0
C 15.3319120351133 18.0971841275804 0
C 17.489736691907023 19.277435266335644 0
C 19.647561348700744 20.457686405090886 0
C 21.805386005494473 21.63793754384613 0
C 23.96321066228819 22.818188682601374 0
C 26.12103531908192 23.99843982135662 0
C 28.278859975875644 25.178690960111865 0
C 30.436684632669365 26.358942098867107 0
C 32.59450928946309 27.539193237622353 0
C 34.75233394625681 28.71944437637759 0
C -1.9874700786257982 6.196318478465029 0
C 0.1703545781679256 7.376569617220272 0
C 2.3281792349616492 8.556820755975517 0
C 4.486003891755372 9.737071894730759 0
C 6.643828548549097 10.917323033486003 0
C 8.801653205342822 12.097574172241247 0
C 10.959477862136543 13.27782531099649 0
C 13.117302518930266 14.458076449751733 0
C 15.27512717572399 15.638327588506977 0
C 17.432951832517716 16.81857872726222 0
C 19.590776489311438 17.998829866017463 0
C 21.748601146105162 19.17908100477271 0
C 23.906425802898887 20.359332143527954 0
C 26.06425045969261 21.539583282283196 0
C 28.222075116486334 22.71983442103844 0
C 30.37989977328006 23.900085559793684 0
C 32.53772443007378 25.080336698548923 0
C 34.6955490868675 26.26058783730417 0
C 36.85337374366122 27.44083897605941 0
C -2.0442549380151065 3.7374619393916046 0
C 0.11356971877861677 4.917713078146848 0
C 2.2713943755723407 6.097964216902091 0
C 4.429219032366064 7.278215355657335 0
C 6.5870436891597866 8.458466494412578 0
C 8.744868345953511 9.638717633167822 0
C 10.902693002747236 10.818968771923066 0
C 13.06051765954096 11.99921991067831 0
C 15.218342316334683 13.179471049433554 0
C 17.376166973128406 14.359722188188796 0
C 19.53399162992213 15.539973326944041 0
C 21.691816286715852 16.720224465699285 0
C 23.849640943509577 17.900475604454527 0
C 26.007465600303302 19.080726743209773 0
C 28.165290257097023 20.260977881965015 0
C 30.32311491389075 21.441229020720254 0
C 32.48093957068447 22.621480159475503 0
C 34.63876422747819 23.80173129823074 0
C 36.79658888427192 24.981982436985984 0
C 0.056784859389308384 2.458856539073424 0
C 2.214609516183032 3.6391076778286675 0
C 4.372434172976756 4.819358816583911 0
C 6.53025882977048 5.999609955339155 0
C 8.688083486564203 7.179861094094398 0
C 10.845908143357926 8.360112232849643 0
C 13.003732800151651 9.540363371604887 0
C 15.161557456945374 10.720614510360127 0
C 17.319382113739096 11.90086564911537 0
C 19.47720677053282 13.081116787870613 0
C 21.635031427326545 14.261367926625859 0
C 23.792856084120267 15.441619065381103 0
C 25.95068074091399 16.621870204136343 0
C 28.108505397707717 17.80212134289159 0
C 30.266330054501438 18.982372481646834 0
C 32.42415471129517 20.16262362040208 0
C 34.581979368088895 21.342874759157322 0
C 36.73980402488261 22.523125897912564 0
C 38.89762868167634 23.70337703666781 0
C 0.0 0.0 0
C 2.1578246567937236 1.1802511387552435 0
C 4.315649313587447 2.360502277510487 0
C 6.473473970381171 3.5407534162657304 0
C 8.631298627174894 4.721004555020974 0
C 10.789123283968618 5.901255693776217 0
C 12.946947940762342 7.081506832531461 0
C 15.104772597556066 8.261757971286706 0
C 17.26259725434979 9.442009110041948 0
C 19.42042191114351 10.622260248797192 0
C 21.578246567937235 11.802511387552434 0
C 23.73607122473096 12.98276252630768 0
C 25.893895881524685 14.163013665062921 0
C 28.051720538318406 15.343264803818165 0
C 30.20954519511213 16.52351594257341 0
C 32.367369851905856 17.703767081328653 0
C 34.52519450869958 18.884018220083895 0
C 36.683019165493306 20.06426935883914 0
C 38.84084382228702 21.244520497594383 0
C 6.416689110991863 1.0818968771923063 0
C 8.574513767785586 2.2621480159475498 0
C 10.732338424579309 3.4423991547027923 0
C 12.89016308137303 4.622650293458036 0
C 15.047987738166755 5.80290143221328 0
C 17.205812394960482 6.983152570968524 0
C 19.363637051754203 8.163403709723768 0
C 21.52146170854793 9.34365484847901 0
C 23.67928636534165 10.523905987234254 0
C 25.837111022135375 11.7041571259895 0
C 27.9949356789291 12.884408264744742 0
C 30.15276033572282 14.064659403499984 0
C 32.310584992516546 15.24491054225523 0
C 34.46840964931027 16.425161681010476 0
C 36.626234306103996 17.605412819765714 0
C 38.78405896289772 18.785663958520956 0
C 40.94188361969144 19.9659150972762 0
C 10.675553565190002 0.9835426156293693 0
C 12.833378221983725 2.1637937543846126 0
C 14.991202878777447 3.344044893139856 0
C 17.14902753557117 4.5242960318950995 0
C 19.306852192364897 5.7045471706503434 0
C 21.464676849158618 6.884798309405585 0
C 23.622501505952343 8.065049448160828 0
C 25.78032616274606 9.245300586916072 0
C 27.938150819539793 10.425551725671314 0
C 30.09597547633351 11.60580286442656 0
C 32.253800133127235 12.786054003181803 0
C 34.411624789920964 13.966305141937047 0
C 36.569449446714685 15.14655628069229 0
C 38.72727410350841 16.326807419447537 0
C 40.885098760302135 17.50705855820278 0
C 14.93441801938814 0.8851883540664316 0
C 17.09224267618186 2.065439492821674 0
C 19.250067332975586 3.245690631576918 0
C 21.40789198976931 4.425941770332163 0
C 23.565716646563036 5.606192909087405 0
C 25.723541303356754 6.7864440478426475 0
C 27.881365960150482 7.9666951865978906 0
C 30.039190616944207 9.146946325353136 0
C 32.197015273737925 10.32719746410838 0
C 34.354839930531654 11.507448602863622 0
C 36.512664587325375 12.687699741618866 0
C 38.670489244119096 13.86795088037411 0
C 40.828313900912825 15.048202019129352 0
C 42.98613855770655 16.228453157884598 0
C 19.193282473586276 0.7868340925034946 0
C 21.351107130380004 1.9670852312587386 0
C 23.508931787173726 3.147336370013981 0
C 25.66675644396745 4.327587508769225 0
C 27.824581100761172 5.507838647524469 0
C 29.982405757554893 6.688089786279712 0
C 32.14023041434862 7.868340925034957 0
C 34.29805507114234 9.048592063790199 0
C 36.45587972793607 10.228843202545443 0
C 38.61370438472979 11.409094341300687 0
C 40.771529041523515 12.589345480055933 0
C 42.929353698317236 13.76959661881117 0
C 23.45214692778442 0.6884798309405568 0
C 25.609971584578144 1.8687309696958008 0
C 27.767796241371865 3.0489821084510464 0
C 29.925620898165587 4.229233247206291 0
C 32.08344555495931 5.409484385961531 0
C 34.24127021175304 6.589735524716777 0
C 36.399094868546754 7.769986663472022 0
C 38.55691952534048 8.950237802227264 0
C 40.714744182134204 10.130488940982508 0
C 42.87256883892793 11.310740079737752 0
C 45.03039349572166 12.490991218492992 0
C 27.71101138198256 0.5901255693776222 0
C 29.86883603877628 1.7703767081328632 0
C 32.02666069557 2.9506278468881058 0
C 34.18448535236372 4.130878985643348 0
C 36.34231000915745 5.311130124398596 0
C 38.50013466595117 6.491381263153836 0
C 40.6579593227449 7.671632401909078 0
C 42.81578397953862 8.851883540664327 0
C 44.973608636332344 10.03213467941957 0
C 31.969875836180695 0.4917713078146828 0
C 34.12770049297442 1.6720224465699252 0
C 36.28552514976814 2.8522735853251677 0
C 38.44334980656187 4.032524724080413 0
C 40.60117446335559 5.212775862835656 0
C 42.75899912014931 6.3930270015909 0
C 44.91682377694304 7.573278140346144 0
C 47.074648433736755 8.753529279101391 0
C 36.22874029037884 0.39341704625174495 0
C 38.38656494717255 1.5736681850069891 0
C 40.54438960396629 2.753919323762233 0
C 42.70221426076001 3.934170462517477 0
C 44.86003891755373 5.1144216012727215 0
C 47.01786357434745 6.294672740027962 0
C 40.48760474457697 0.29506278468881064 0
C 42.6454294013707 1.4753139234440544 0
C 44.80325405816443 2.6555650621992952 0
C 46.96107871495814 3.835816200954539 0
C 49.11890337175188 5.0160673397097835 0
C 44.74646919877511 0.19670852312586923 0
C 46.90429385556884 1.3769596618811135 0
C 49.06211851236255 2.5572108006363576 0
C 49.00533365297325 0.09835426156293493 0
C 51.16315830976697 1.2786054003181793 0
C -23.792856084120263 46.06257916530881 0
C -23.84964094350957 43.60372262623539 0
C -21.691816286715852 44.78397376499063 0
C -19.533991629922127 45.96422490374587 0
C -21.748601146105155 42.325117225917204 0
C -19.590776489311438 43.50536836467245 0
C -17.432951832517716 44.685619503427695 0
C -15.275127175723984 45.86587064218294 0
C -21.80538600549447 39.86626068684378 0
C -19.647561348700744 41.046511825599026 0
C -17.489736691907023 42.22676296435427 0
C -15.331912035113298 43.40701410310951 0
C -13.17408737831957 44.587265241864756 0
C -11.016262721525855 45.76751638062001 0
C -19.704346208090048 38.587655286525596 0
C -17.546521551296326 39.76790642528085 0
C -15.388696894502601 40.94815756403608 0
C -13.230872237708878 42.12840870279133 0
C -11.073047580915157 43.30865984154658 0
C -8.915222924121434 44.488910980301824 0
C -6.757398267327707 45.66916211905706 0
C -19.761131067479358 36.12879874745217 0
C -17.603306410685637 37.30904988620742 0
C -15.445481753891915 38.489301024962664 0
C -13.287657097098192 39.66955216371791 0
C -11.129832440304467 40.84980330247315 0
C -8.972007783510742 42.030054441228394 0
C -6.814183126717018 43.21030557998365 0
C -4.656358469923296 44.390556718738885 0
C -2.4985338131295705 45.57080785749413 0
C -17.660091270074943 34.850193347133995 0
C -15.502266613281225 36.03044448588924 0
C -13.344441956487499 37.21069562464449 0
C -11.186617299693776 38.390946763399725 0
C -9.028792642900054 39.57119790215497 0
C -6.870967986106329 40.75144904091022 0
C -4.7131433293126035 41.93170017966546 0
C -2.5553186725188817 43.1119513184207 0
C -0.397494015725156 44.29220245717595 0
C 1.7603306410685624 45.472453595931185 0
C -17.716876129464257 32.39133680806057 0
C -15.559051472670532 33.57158794681582 0
C -13.401226815876813 34.751839085571056 0
C -11.243402159083082 35.9320902243263 0
C -9.08557750228936 37.11234136308155 0
C -6.927752845495639 38.29259250183679 0
C -4.769928188701913 39.47284364059204 0
C -2.612103531908193 40.65309477934728 0
C -0.4542788751144671 41.83334591810252 0
C 1.703545781679262 43.01359705685777 0
C 3.8613704384729806 44.193848195613015 0
C 6.019195095266706 45.37409933436825 0
C -15.61583633205984 31.11273140774239 0
C -13.458011675266118 32.29298254649763 0
C -11.300187018472398 33.47323368525288 0
C -9.142362361678671 34.653484824008125 0
C -6.984537704884948 35.83373596276336 0
C -4.826713048091228 37.01398710151861 0
C -2.6688883912974983 38.194238240273855 0
C -0.5110637345037745 39.37448937902911 0
C 1.6467609222899475 40.554740517784346 0
C 3.8045855790836733 41.734991656539584 0
C 5.962410235877393 42.91524279529483 0
C 8.12023489267112 44.095493934050076 0
C 10.278059549464839 45.275745072805314 0
C -15.672621191449153 28.65387486866897 0
C -13.514796534655428 29.834126007424214 0
C -11.356971877861705 31.014377146179456 0
C -9.199147221067982 32.1946282849347 0
C -7.041322564274255 33.37487942368994 0
C -4.883497907480532 34.555130562445186 0
C -2.7256732506868113 35.73538170120043 0
C -0.5678485938930856 36.91563283995568 0
C 1.5899760629006383 38.09588397871092 0
C 3.747800719694364 39.27613511746617 0
C 5.905625376488091 40.456386256221414 0
C 8.06345003328181 41.63663739497665 0
C 10.221274690075536 42.8168885337319 0
C 12.379099346869255 43.99713967248714 0
C 14.536924003662982 45.17739081124238 0
C -13.571581394044737 27.37526946835079 0
C -11.413756737251012 28.555520607106033 0
C -9.255932080457288 29.735771745861275 0
C -7.098107423663568 30.91602288461652 0
C -4.940282766869843 32.09627402337176 0
C -2.7824581100761185 33.27652516212701 0
C -0.6246334532823966 34.45677630088225 0
C 1.5331912035113306 35.63702743963749 0
C 3.691015860305051 36.81727857839274 0
C 5.848840517098776 37.997529717147984 0
C 8.006665173892504 39.17778085590323 0
C 10.164489830686223 40.35803199465847 0
C 12.322314487479948 41.538283133413714 0
C 14.480139144273668 42.71853427216895 0
C 16.637963801067396 43.8987854109242 0
C 18.79578845786112 45.079036549679444 0
C -13.628366253434042 24.916412929277364 0
C -11.470541596640317 26.09666406803261 0
C -9.312716939846595 27.27691520678785 0
C -7.154892283052876 28.457166345543097 0
C -4.997067626259148 29.63741748429834 0
C -2.8392429694654244 30.81766862305358 0
C -0.6814183126717024 31.997919761808827 0
C 1.4764063441220214 33.17817090056407 0
C 3.6342310009157472 34.358422039319315 0
C 5.792055657709471 35.53867317807456 0
C 7.949880314503193 36.7189243168298 0
C 10.10770497129692 37.899175455585045 0
C 12.265529628090638 39.07942659434028 0
C 14.423354284884365 40.25967773309553 0
C 16.581178941678086 41.439928871850775 0
C 18.73900359847181 42.62018001060602 0
C 20.896828255265536 43.80043114936126 0
C 23.054652912059257 44.980682288116505 0
C -11.527326456029629 23.637807528959183 0
C -9.369501799235904 24.81805866771443 0
C -7.2116771424421815 25.99830980646967 0
C -5.053852485648461 27.178560945224913 0
C -2.8960278288547374 28.358812083980155 0
C -0.7382031720610116 29.5390632227354 0
C 1.4196214847327122 30.719314361490643 0
C 3.5774461415264343 31.899565500245888 0
C 5.735270798320162 33.07981663900113 0
C 7.893095455113884 34.260067777756376 0
C 10.05092011190761 35.44031891651162 0
C 12.208744768701337 36.62057005526687 0
C 14.366569425495054 37.80082119402211 0
C 16.524394082288783 38.98107233277735 0
C 18.6822187390825 40.1613234715326 0
C 20.840043395876226 41.34157461028784 0
C 22.997868052669954 42.52182574904309 0
C 25.155692709463672 43.70207688779833 0
C 27.3135173662574 44.88232802655357 0
C -11.584111315418939 21.17895098988576 0
C -9.426286658625212 22.359202128641005 0
C -7.268462001831489 23.539453267396247 0
C -5.110637345037769 24.71970440615149 0
C -2.9528126882440446 25.899955544906735 0
C -0.7949880314503227 27.080206683661977 0
C 1.3628366253434048 28.260457822417223 0
C 3.5206612821371266 29.440708961172465 0
C 5.678485938930849 30.620960099927707 0
C 7.836310595724576 31.801211238682953 0
C 9.994135252518301 32.981462377438206 0
C 12.151959909312023 34.161713516193444 0
C 14.30978456610575 35.34196465494869 0
C 16.46760922289947 36.52221579370393 0
C 18.625433879693194 37.702466932459174 0
C 20.783258536486915 38.88271807121441 0
C 22.94108319328064 40.06296920996966 0
C 25.098907850074365 41.243220348724904 0
C 27.256732506868087 42.42347148748014 0
C -9.483071518014523 19.90034558956758 0
C -7.325246861220797 21.08059672832282 0
C -5.167422204427073 22.260847867078066 0
C -3.0095975476333505 23.44109900583331 0
C -0.8517728908396266 24.62135014458855 0
C 1.3060517659540953 25.801601283343796 0
C 3.463876422747821 26.981852422099042 0
C 5.621701079541545 28.162103560854284 0
C 7.779525736335268 29.342354699609526 0
C 9.937350393128993 30.522605838364772 0
C 12.095175049922716 31.702856977120017 0
C 14.25299970671644 32.88310811587526 0
C 16.410824363510166 34.063359254630505 0
C 18.568649020303884 35.243610393385744 0
C 20.726473677097612 36.42386153214099 0
C 22.88429833389133 37.60411267089623 0
C 25.04212299068506 38.784363809651474 0
C 27.199947647478783 39.96461494840672 0
C 29.3577723042725 41.14486608716196 0
C -9.539856377403831 17.441489050494155 0
C -7.382031720610107 18.621740189249397 0
C -5.224207063816382 19.80199132800464 0
C -3.066382407022658 20.98224246675989 0
C -0.9085577502289359 22.162493605515127 0
C 1.2492669065647861 23.34274474427037 0
C 3.407091563358508 24.52299588302561 0
C 5.564916220152234 25.703247021780857 0
C 7.722740876945958 26.8834981605361 0
C 9.88056553373968 28.063749299291345 0
C 12.038390190533407 29.244000438046587 0
C 14.19621484732713 30.424251576801836 0
C 16.354039504120855 31.604502715557082 0
C 18.51186416091458 32.78475385431233 0
C 20.669688817708302 33.965004993067566 0
C 22.827513474502027 35.14525613182281 0
C 24.985338131295748 36.32550727057805 0
C 27.143162788089473 37.505758409333296 0
C 29.3009874448832 38.68600954808854 0
C -7.438816579999417 16.162883650175974 0
C -5.2809919232056926 17.343134788931216 0
C -3.123167266411967 18.523385927686462 0
C -0.9653426096182451 19.703637066441704 0
C 1.1924820471754787 20.883888205196946 0
C 3.350306703969201 22.064139343952192 0
C 5.508131360762924 23.244390482707434 0
C 7.66595601755665 24.42464162146268 0
C 9.823780674350372 25.604892760217922 0
C 11.981605331144095 26.785143898973164 0
C 14.139429987937822 27.96539503772841 0
C 16.29725464473154 29.145646176483652 0
C 18.45507930152527 30.325897315238898 0
C 20.612903958318995 31.506148453994143 0
C 22.770728615112713 32.68639959274938 0
C 24.92855327190644 33.86665073150463 0
C 27.08637792870016 35.04690187025987 0
C 29.244202585493888 36.22715300901512 0
C 31.402027242287613 37.40740414777036 0
C -7.495601439388724 13.704027111102551 0
C -5.337776782595002 14.884278249857795 0
C -3.1799521258012784 16.064529388613035 0
C -1.0221274690075526 17.24478052736828 0
C 1.1356971877861703 18.425031666123527 0
C 3.2935218445798933 19.60528280487877 0
C 5.4513465013736155 20.78553394363401 0
C 7.609171158167339 21.965785082389253 0
C 9.766995814961065 23.1460362211445 0
C 11.924820471754787 24.32628735989974 0
C 14.08264512854851 25.506538498654987 0
C 16.240469785342235 26.68678963741023 0
C 18.39829444213596 27.867040776165478 0
C 20.55611909892968 29.047291914920716 0
C 22.71394375572341 30.227543053675962 0
C 24.871768412517127 31.4077941924312 0
C 27.029593069310852 32.58804533118645 0
C 29.187417726104574 33.76829646994169 0
C 31.3452423828983 34.948547608696934 0
C -5.394561641984308 12.425421710784372 0
C -3.2367369851905856 13.605672849539614 0
C -1.078912328396863 14.785923988294856 0
C 1.0789123283968611 15.9661751270501 0
C 3.2367369851905865 17.146426265805346 0
C 5.394561641984309 18.326677404560588 0
C 7.552386298778032 19.50692854331583 0
C 9.710210955571755 20.687179682071072 0
C 11.868035612365482 21.867430820826318 0
C 14.025860269159203 23.047681959581563 0
C 16.183684925952928 24.227933098336806 0
C 18.341509582746653 25.40818423709205 0
C 20.499334239540374 26.588435375847293 0
C 22.6571588963341 27.76868651460254 0
C 24.814983553127828 28.948937653357785 0
C 26.972808209921546 30.129188792113023 0
C 29.13063286671527 31.30943993086827 0
C 31.288457523508992 32.48969106962351 0
C 33.44628218030272 33.66994220837876 0
C -5.451346501373616 9.966565171710947 0
C -3.2935218445798933 11.146816310466187 0
C -1.1356971877861686 12.327067449221433 0
C 1.0221274690075535 13.507318587976677 0
C 3.1799521258012775 14.687569726731919 0
C 5.337776782595003 15.867820865487165 0
C 7.495601439388724 17.048072004242403 0