ITEM: TIMESTEP
0
ITEM: NUMBER OF ATOMS
11908
ITEM: BOX BOUNDS xy xz yz pp pp pp 
-67.09781740 134.19563480 -67.09781740 
0.00000000 116.21682882 0.00000000 
-20.000 20.000 0.000 
ITEM: ATOMS type x y z
C -64.9791762067709 114.96760526117527 0
C -62.83799627626684 116.17779057971397 0
C -62.8605350123774 113.7183817065547 0
C -60.719355081873324 114.92856702509339 0
C -58.578175151369265 116.13875234363208 0
C -62.88307374848795 111.25897283339543 0
C -60.741893817983886 112.4691581519341 0
C -58.60071388747983 113.6793434704728 0
C -56.459533956975754 114.8895287890115 0
C -54.318354026471674 116.09971410755017 0
C -60.76443255409447 110.00974927877485 0
C -58.623252623590396 111.21993459731354 0
C -56.48207269308634 112.43011991585223 0
C -54.34089276258228 113.64030523439092 0
C -52.199712832078184 114.8504905529296 0
C -50.05853290157411 116.06067587146829 0
C -60.78697129020504 107.55034040561559 0
C -58.645791359700965 108.76052572415428 0
C -56.5046114291969 109.97071104269294 0
C -54.363431498692826 111.18089636123163 0
C -52.22225156818877 112.39108167977032 0
C -50.08107163768469 113.60126699830901 0
C -47.939891707180614 114.8114523168477 0
C -45.79871177667655 116.02163763538638 0
C -58.66833009581153 106.301116850995 0
C -56.527150165307454 107.51130216953368 0
C -54.38597023480338 108.72148748807236 0
C -52.24479030429932 109.93167280661106 0
C -50.10361037379525 111.14185812514975 0
C -47.96243044329117 112.35204344368843 0
C -45.821250512787095 113.56222876222712 0
C -43.68007058228303 114.7724140807658 0
C -41.53889065177897 115.98259939930449 0
C -58.690868831922096 103.84170797783572 0
C -56.54968890141802 105.05189329637442 0
C -54.40850897091395 106.2620786149131 0
C -52.26732904040988 107.47226393345179 0
C -50.1261491099058 108.68244925199048 0
C -47.984969179401745 109.89263457052917 0
C -45.843789248897664 111.10281988906786 0
C -43.70260931839359 112.31300520760655 0
C -41.56142938788951 113.52319052614521 0
C -39.42024945738545 114.73337584468392 0
C -37.27906952688139 115.94356116322261 0
C -56.57222763752861 102.59248442321515 0
C -54.43104770702454 103.80266974175385 0
C -52.28986777652046 105.01285506029254 0
C -50.148687846016394 106.2230403788312 0
C -48.00750791551232 107.4332256973699 0
C -45.86632798500826 108.6434110159086 0
C -43.72514805450418 109.85359633444729 0
C -41.58396812400011 111.06378165298597 0
C -39.44278819349604 112.27396697152464 0
C -37.30160826299197 113.48415229006334 0
C -35.16042833248791 114.69433760860203 0
C -33.01924840198384 115.90452292714072 0
C -56.59476637363917 100.13307555005588 0
C -54.45358644313511 101.34326086859457 0
C -52.312406512631036 102.55344618713326 0
C -50.17122658212695 103.76363150567194 0
C -48.030046651622875 104.97381682421063 0
C -45.888866721118816 106.18400214274932 0
C -43.74768679061476 107.39418746128801 0
C -41.60650686011066 108.6043727798267 0
C -39.46532692960659 109.8145580983654 0
C -37.324146999102524 111.02474341690406 0
C -35.182967068598465 112.23492873544275 0
C -33.041787138094406 113.44511405398144 0
C -30.90060720759032 114.65529937252013 0
C -28.759427277086242 115.86548469105882 0
C -54.47612517924565 98.8838519954353 0
C -52.33494524874159 100.09403731397398 0
C -50.19376531823752 101.30422263251268 0
C -48.052585387733444 102.51440795105137 0
C -45.91140545722938 103.72459326959004 0
C -43.770225526725305 104.93477858812874 0
C -41.629045596221246 106.14496390666743 0
C -39.487865665717166 107.3551492252061 0
C -37.34668573521309 108.5653345437448 0
C -35.20550580470903 109.77551986228347 0
C -33.064325874204954 110.98570518082217 0
C -30.923145943700895 112.19589049936086 0
C -28.781966013196822 113.40607581789955 0
C -26.640786082692745 114.61626113643823 0
C -24.499606152188658 115.82644645497692 0
C -54.49866391535623 96.42444312227603 0
C -52.35748398485217 97.63462844081474 0
C -50.21630405434811 98.84481375935341 0
C -48.075124123844034 100.0549990778921 0
C -45.93394419333996 101.26518439643078 0
C -43.79276426283589 102.47536971496947 0
C -41.65158433233183 103.68555503350817 0
C -39.510404401827756 104.89574035204686 0
C -37.369224471323676 106.10592567058555 0
C -35.2280445408196 107.31611098912423 0
C -33.08686461031554 108.5262963076629 0
C -30.945684679811464 109.7364816262016 0
C -28.804504749307405 110.94666694474029 0
C -26.663324818803332 112.15685226327898 0
C -24.522144888299255 113.36703758181767 0
C -22.380964957795182 114.57722290035635 0
C -20.239785027291116 115.78740821889504 0
C -52.38002272096272 95.17521956765546 0
C -50.23884279045866 96.38540488619415 0
C -48.0976628599546 97.59559020473283 0
C -45.95648292945053 98.80577552327152 0
C -43.81530299894644 100.0159608418102 0
C -41.67412306844238 101.22614616034888 0
C -39.53294313793832 102.43633147888757 0
C -37.39176320743426 103.64651679742626 0
C -35.25058327693018 104.85670211596495 0
C -33.10940334642609 106.06688743450364 0
C -30.968223415922026 107.27707275304232 0
C -28.827043485417967 108.48725807158101 0
C -26.685863554913908 109.6974433901197 0
C -24.54468362440982 110.9076287086584 0
C -22.403503693905744 112.11781402719707 0
C -20.26232376340167 113.32799934573576 0
C -18.12114383289762 114.53818466427444 0
C -15.979963902393552 115.74836998281313 0
C -52.40256145707331 92.71581069449618 0
C -50.261381526569245 93.92599601303489 0
C -48.12020159606516 95.13618133157357 0
C -45.97902166556109 96.34636665011224 0
C -43.83784173505703 97.55655196865094 0
C -41.69666180455296 98.76673728718961 0
C -39.55548187404889 99.97692260572832 0
C -37.414301943544814 101.187107924267 0
C -35.27312201304074 102.39729324280569 0
C -33.131942082536675 103.60747856134438 0
C -30.990762152032605 104.81766387988307 0
C -28.849582221528536 106.02784919842175 0
C -26.708402291024463 107.23803451696044 0
C -24.56722236052039 108.44821983549912 0
C -22.42604243001633 109.65840515403782 0
C -20.284862499512247 110.8685904725765 0
C -18.143682569008188 112.07877579111519 0
C -16.002502638504115 113.28896110965387 0
C -13.86132270800004 114.49914642819255 0
C -11.720142777495973 115.70933174673125 0
C -50.28392026267979 91.4665871398756 0
C -48.142740332175734 92.6767724584143 0
C -46.00156040167166 93.88695777695298 0
C -43.86038047116759 95.09714309549166 0
C -41.719200540663515 96.30732841403035 0
C -39.57802061015944 97.51751373256904 0
C -37.43684067965538 98.72769905110773 0
C -35.29566074915131 99.93788436964643 0
C -33.15448081864724 101.1480696881851 0
C -31.01330088814316 102.35825500672381 0
C -28.872120957639087 103.56844032526249 0
C -26.73094102713503 104.77862564380116 0
C -24.58976109663096 105.98881096233985 0
C -22.44858116612688 107.19899628087855 0
C -20.307401235622812 108.40918159941724 0
C -18.166221305118736 109.61936691795592 0
C -16.025041374614677 110.8295522364946 0
C -13.883861444110602 112.03973755503328 0
C -11.742681513606529 113.24992287357198 0
C -9.601501583102461 114.46010819211067 0
C -7.460321652598402 115.67029351064936 0
C -50.30645899879038 89.00717826671634 0
C -48.16527906828631 90.21736358525501 0
C -46.024099137782216 91.4275489037937 0
C -43.88291920727816 92.6377342223324 0
C -41.741739276774105 93.84791954087109 0
C -39.60055934627003 95.05810485940978 0
C -37.45937941576595 96.26829017794847 0
C -35.31819948526187 97.47847549648715 0
C -33.17701955475781 98.68866081502584 0
C -31.03583962425375 99.89884613356453 0
C -28.894659693749677 101.10903145210322 0
C -26.75347976324559 102.3192167706419 0
C -24.612299832741527 103.52940208918058 0
C -22.47111990223746 104.73958740771927 0
C -20.329939971733396 105.94977272625796 0
C -18.188760041229322 107.15995804479665 0
C -16.047580110725246 108.37014336333533 0
C -13.906400180221166 109.58032868187402 0
C -11.765220249717112 110.7905140004127 0
C -9.624040319213046 112.00069931895139 0
C -7.482860388708972 113.21088463749008 0
C -5.341680458204898 114.42106995602877 0
C -3.200500527700824 115.63125527456747 0
C -48.18781780439688 87.75795471209575 0
C -46.046637873892806 88.96814003063444 0
C -43.90545794338875 90.17832534917314 0
C -41.764278012884674 91.38851066771183 0
C -39.62309808238059 92.5986959862505 0
C -37.48191815187653 93.8088813047892 0
C -35.340738221372455 95.01906662332789 0
C -33.199558290868396 96.22925194186658 0
C -31.058378360364305 97.43943726040527 0
C -28.917198429860232 98.64962257894395 0
C -26.776018499356173 99.85980789748265 0
C -24.6348385688521 101.06999321602133 0
C -22.493658638348037 102.28017853456001 0
C -20.352478707843964 103.4903638530987 0
C -18.211298777339884 104.70054917163738 0
C -16.070118846835825 105.91073449017608 0
C -13.928938916331743 107.12091980871476 0
C -11.787758985827683 108.33110512725345 0
C -9.646579055323608 109.54129044579213 0
C -7.505399124819542 110.75147576433082 0
C -5.364219194315475 111.96166108286951 0
C -3.223039263811401 113.1718464014082 0
C -1.081859333307327 114.38203171994688 0
C 1.059320597196747 115.59221703848557 0
C -48.21035654050743 85.29854583893649 0
C -46.069176610003375 86.50873115747518 0
C -43.92799667949929 87.71891647601386 0
C -41.78681674899523 88.92910179455257 0
C -39.645636818491155 90.13928711309124 0
C -37.50445688798708 91.34947243162992 0
C -35.36327695748302 92.55965775016863 0
C -33.222097026978936 93.7698430687073 0
C -31.080917096474884 94.980028387246 0
C -28.939737165970808 96.19021370578467 0
C -26.798557235466728 97.40039902432335 0
C -24.65737730496267 98.61058434286205 0
C -22.51619737445859 99.82076966140073 0
C -20.375017443954533 101.03095497993942 0
C -18.23383751345046 102.2411402984781 0
C -16.09265758294638 103.45132561701679 0
C -13.95147765244232 104.66151093555548 0
C -11.81029772193824 105.87169625409418 0
C -9.669117791434171 107.08188157263287 0
C -7.527937860930105 108.29206689117154 0
C -5.386757930426038 109.50225220971022 0
C -3.245577999921964 110.71243752824891 0
C -1.1043980694178968 111.9226228467876 0
C 1.0367818610861772 113.1328081653263 0
C 3.1779617915902514 114.34299348386499 0
C 5.319141722094311 115.55317880240366 0
C -46.09171534611393 84.0493222843159 0
C -43.95053541560988 85.2595076028546 0
C -41.809355485105804 86.46969292139329 0
C -39.668175554601724 87.67987823993198 0
C -37.52699562409765 88.89006355847067 0
C -35.3858156935936 90.10024887700935 0
C -33.244635763089526 91.31043419554804 0
C -31.103455832585446 92.52061951408672 0
C -28.962275902081373 93.73080483262541 0
C -26.821095971577304 94.9409901511641 0
C -24.679916041073245 96.15117546970279 0
C -22.538736110569165 97.36136078824148 0
C -20.39755618006509 98.57154610678016 0
C -18.256376249561022 99.78173142531884 0
C -16.115196319056956 100.99191674385753 0
C -13.97401638855289 102.20210206239622 0
C -11.832836458048815 103.41228738093491 0
C -9.691656527544742 104.6224726994736 0
C -7.550476597040667 105.83265801801228 0
C -5.409296666536608 107.04284333655097 0
C -3.2681167360325407 108.25302865508965 0
C -1.1269368055284668 109.46321397362834 0
C 1.0142431249756003 110.67339929216703 0
C 3.155423055479681 111.88358461070573 0
C 5.296602985983748 113.09376992924442 0
C 7.437782916487815 114.3039552477831 0
C 9.578962846991882 115.51414056632179 0
C -46.114254082224505 81.58991341115664 0
C -43.97307415172043 82.80009872969532 0
C -41.83189422121636 84.01028404823401 0
C -39.690714290712286 85.2204693667727 0
C -37.54953436020821 86.4306546853114 0
C -35.408354429704154 87.64084000385009 0
C -33.26717449920009 88.85102532238878 0
C -31.125994568696015 90.06121064092746 0
C -28.984814638191935 91.27139595946613 0
C -26.84363470768787 92.48158127800481 0
C -24.7024547771838 93.6917665965435 0
C -22.56127484667974 94.90195191508221 0
C -20.42009491617566 96.11213723362089 0
C -18.278914985671587 97.32232255215958 0
C -16.137735055167525 98.53250787069825 0
C -13.996555124663452 99.74269318923695 0
C -11.855375194159386 100.95287850777564 0
C -9.714195263655311 102.16306382631431 0
C -7.573015333151237 103.373249144853 0
C -5.431835402647163 104.5834344633917 0
C -3.2906554721431034 105.79361978193037 0
C -1.1494755416390294 107.00380510046907 0
C 0.9917043888650375 108.21399041900776 0
C 3.1328843193691043 109.42417573754645 0
C 5.274064249873185 110.63436105608513 0
C 7.415244180377252 111.84454637462382 0
C 9.55642411088132 113.0547316931625 0
C 11.697604041385386 114.26491701170119 0
C 13.83878397188946 115.47510233023988 0
C -43.99561288783101 80.34068985653606 0
C -41.85443295732693 81.55087517507475 0
C -39.713253026822876 82.76106049361344 0
C -37.5720730963188 83.97124581215212 0
C -35.43089316581472 85.18143113069083 0
C -33.28971323531065 86.3916164492295 0
C -31.14853330480658 87.60180176776818 0
C -29.007353374302514 88.81198708630687 0
C -26.866173443798438 90.02217240484556 0
C -24.72499351329438 91.23235772338425 0
C -22.583813582790302 92.44254304192293 0
C -20.44263365228623 93.65272836046162 0
C -18.301453721782163 94.86291367900031 0
C -16.16027379127809 96.073098997539 0
C -14.019093860774023 97.28328431607768 0
C -11.877913930269955 98.49346963461637 0
C -9.736733999765882 99.70365495315505 0
C -7.595554069261814 100.91384027169374 0
C -5.45437413875774 102.12402559023243 0
C -3.313194208253666 103.33421090877113 0
C -1.1720142777496063 104.5443962273098 0
C 0.9691656527544676 105.7545815458485 0
C 3.1103455832585345 106.96476686438719 0
C 5.2515255137626085 108.17495218292588 0
C 7.392705444266682 109.38513750146456 0
C 9.533885374770756 110.59532282000325 0
C 11.675065305274817 111.80550813854192 0
C 13.81624523577889 113.01569345708062 0
C 15.957425166282958 114.22587877561931 0
C 18.098605096787033 115.436064094158 0
C -44.01815162394158 77.8812809833768 0
C -41.876971693437504 79.09146630191549 0
C -39.73579176293343 80.30165162045418 0
C -37.59461183242937 81.51183693899286 0
C -35.4534319019253 82.72202225753155 0
C -33.31225197142122 83.93220757607023 0
C -31.17107204091716 85.14239289460892 0
C -29.029892110413094 86.35257821314761 0
C -26.88871217990902 87.5627635316863 0
C -24.747532249404948 88.77294885022498 0
C -22.606352318900868 89.98313416876367 0
C -20.465172388396805 91.19331948730236 0
C -18.323992457892732 92.40350480584105 0
C -16.182812527388666 93.61369012437974 0
C -14.041632596884584 94.82387544291844 0
C -11.900452666380525 96.03406076145711 0
C -9.75927273587645 97.2442460799958 0
C -7.618092805372384 98.45443139853448 0
C -5.47691287486831 99.66461671707317 0
C -3.335732944364236 100.87480203561186 0
C -1.194553013860169 102.08498735415056 0
C 0.9466269166438979 103.29517267268923 0
C 3.0878068471479647 104.50535799122792 0
C 5.228986777652039 105.71554330976662 0
C 7.3701667081561055 106.92572862830531 0
C 9.51134663866018 108.13591394684398 0
C 11.652526569164253 109.34609926538268 0
C 13.793706499668314 110.55628458392135 0
C 15.934886430172387 111.76646990246005 0
C 18.076066360676453 112.97665522099874 0
C 20.217246291180537 114.18684053953741 0
C 22.358426221684603 115.3970258580761 0
C -41.899510429548066 76.63205742875621 0
C -39.75833049904401 77.8422427472949 0
C -37.61715056853993 79.0524280658336 0
C -35.47597063803587 80.26261338437227 0
C -33.334790707531795 81.47279870291095 0
C -31.19361077702771 82.68298402144964 0
C -29.052430846523652 83.89316933998833 0
C -26.911250916019586 85.10335465852702 0
C -24.770070985515513 86.31353997706572 0
C -22.62889105501143 87.52372529560441 0
C -20.48771112450737 88.73391061414308 0
C -18.3465311940033 89.94409593268178 0
C -16.205351263499228 91.15428125122047 0
C -14.064171332995162 92.36446656975914 0
C -11.92299140249108 93.57465188829784 0
C -9.781811471987021 94.78483720683651 0
C -7.640631541482946 95.9950225253752 0
C -5.49945161097888 97.2052078439139 0
C -3.3582716804748056 98.41539316245259 0
C -1.2170917499707319 99.62557848099127 0
C 0.9240881805333351 100.83576379952996 0
C 3.065268111037402 102.04594911806863 0
C 5.206448041541469 103.25613443660733 0
C 7.347627972045543 104.46631975514602 0
C 9.48880790254961 105.67650507368471 0
C 11.629987833053692 106.8866903922234 0
C 13.771167763557758 108.09687571076208 0
C 15.912347694061825 109.30706102930077 0
C 18.05352762456589 110.51724634783945 0
C 20.194707555069957 111.72743166637814 0
C 22.33588748557404 112.93761698491683 0
C 24.477067416078107 114.14780230345552 0
C 26.618247346582173 115.35798762199421 0
C -41.922049165658635 74.17264855559695 0
C -39.78086923515458 75.38283387413564 0
C -37.63968930465051 76.59301919267432 0
C -35.49850937414642 77.80320451121301 0
C -33.35732944364237 79.0133898297517 0
C -31.216149513138287 80.22357514829038 0
C -29.07496958263423 81.43376046682909 0
C -26.933789652130148 82.64394578536776 0
C -24.792609721626082 83.85413110390645 0
C -22.65142979112201 85.06431642244515 0
C -20.51024986061794 86.27450174098382 0
C -18.369069930113874 87.48468705952251 0
C -16.227889999609797 88.6948723780612 0
C -14.086710069105731 89.90505769659988 0
C -11.945530138601658 91.11524301513857 0
C -9.804350208097583 92.32542833367727 0
C -7.663170277593516 93.53561365221594 0
C -5.521990347089449 94.74579897075463 0
C -3.380810416585383 95.95598428929333 0
C -1.2396304860813088 97.16616960783202 0
C 0.9015494444227653 98.3763549263707 0
C 3.0427293749268394 99.58654024490939 0
C 5.183909305430899 100.79672556344806 0
C 7.325089235934973 102.00691088198676 0
C 9.46626916643904 103.21709620052545 0
C 11.607449096943114 104.42728151906414 0
C 13.748629027447189 105.63746683760283 0
C 15.889808957951255 106.8476521561415 0
C 18.030988888455322 108.05783747468018 0
C 20.17216881895939 109.26802279321888 0
C 22.31334874946346 110.47820811175757 0
C 24.454528679967538 111.68839343029626 0
C 26.595708610471608 112.89857874883495 0
C 28.73688854097567 114.10876406737364 0
C 30.878068471479747 115.31894938591233 0
C -39.803407971265145 72.92342500097637 0
C -37.66222804076107 74.13361031951506 0
C -35.521048110257006 75.34379563805375 0
C -33.37986817975293 76.55398095659244 0
C -31.23868824924887 77.76416627513112 0
C -29.097508318744794 78.97435159366981 0
C -26.95632838824072 80.1845369122085 0
C -24.815148457736655 81.39472223074719 0
C -22.67396852723259 82.60490754928587 0
C -20.532788596728516 83.81509286782456 0
C -18.391608666224442 85.02527818636325 0
C -16.250428735720376 86.23546350490193 0
C -14.109248805216309 87.44564882344062 0
C -11.968068874712234 88.65583414197931 0
C -9.826888944208168 89.86601946051799 0
C -7.685709013704093 91.07620477905668 0
C -5.544529083200026 92.28639009759536 0
C -3.40334915269596 93.49657541613405 0
C -1.2621692221918857 94.70676073467274 0
C 0.8790107083121812 95.91694605321143 0
C 3.0201906388162625 97.12713137175011 0
C 5.161370569320329 98.3373166902888 0
C 7.302550499824396 99.54750200882748 0
C 9.443730430328463 100.75768732736617 0
C 11.584910360832538 101.96787264590486 0
C 13.726090291336604 103.17805796444355 0
C 15.867270221840679 104.38824328298224 0
C 18.008450152344754 105.59842860152094 0
C 20.149630082848812 106.8086139200596 0
C 22.290810013352882 108.01879923859829 0
C 24.43198994385695 109.22898455713698 0
C 26.57316987436103 110.43916987567567 0
C 28.7143498048651 111.64935519421437 0
C 30.855529735369164 112.85954051275306 0
C 32.99670966587324 114.06972583129175 0
C 35.137889596377306 115.27991114983041 0
C -39.82594670737571 70.4640161278171 0
C -37.68476677687163 71.67420144635578 0
C -35.54358684636757 72.88438676489447 0
C -33.4024069158635 74.09457208343316 0
C -31.261226985359425 75.30475740197186 0
C -29.120047054855362 76.51494272051053 0
C -26.978867124351286 77.72512803904922 0
C -24.837687193847213 78.93531335758792 0
C -22.696507263343147 80.1454986761266 0
C -20.555327332839074 81.35568399466528 0
C -18.414147402335008 82.56586931320398 0
C -16.27296747183094 83.77605463174265 0
C -14.131787541326863 84.98623995028134 0
C -11.990607610822797 86.19642526882004 0
C -9.849427680318723 87.40661058735873 0
C -7.708247749814657 88.61679590589742 0
C -5.567067819310575 89.8269812244361 0
C -3.4258878888065154 91.03716654297477 0
C -1.2847079583024485 92.24735186151347 0
C 0.8564719722016255 93.45753718005216 0
C 2.9976519027056923 94.66772249859085 0
C 5.138831833209774 95.87790781712954 0
C 7.280011763713841 97.08809313566823 0
C 9.421191694217907 98.29827845420691 0
C 11.562371624721974 99.5084637727456 0
C 13.70355155522605 100.71864909128428 0
C 15.844731485730115 101.92883440982297 0
C 17.98591141623419 103.13901972836166 0
C 20.127091346738265 104.34920504690035 0
C 22.268271277242327 105.55939036543903 0
C 24.409451207746397 106.76957568397772 0
C 26.550631138250463 107.97976100251641 0
C 28.691811068754543 109.18994632105509 0
C 30.832990999258612 110.40013163959378 0
C 32.97417092976268 111.61031695813247 0
C 35.11535086026675 112.82050227667116 0
C 37.256530790770825 114.03068759520984 0
C 39.39771072127488 115.24087291374853 0
C -37.70730551298222 69.21479257319652 0
C -35.56612558247814 70.42497789173521 0
C -33.42494565197408 71.6351632102739 0
C -31.283765721470004 72.84534852881258 0
C -29.142585790965924 74.05553384735127 0
C -27.00140586046187 75.26571916588996 0
C -24.860225929957785 76.47590448442864 0
C -22.71904599945372 77.68608980296733 0
C -20.577866068949653 78.89627512150602 0
C -18.43668613844558 80.10646044004471 0
C -16.295506207941514 81.3166457585834 0
C -14.154326277437434 82.52683107712208 0
C -12.013146346933366 83.73701639566077 0
C -9.871966416429293 84.94720171419947 0
C -7.730786485925226 86.15738703273816 0
C -5.5896065554211525 87.36757235127685 0
C -3.448426624917078 88.57775766981553 0
C -1.3072466944130183 89.7879429883542 0
C 0.8339332360910557 90.9981283068929 0
C 2.9751131665951225 92.20831362543159 0
C 5.116293097099197 93.41849894397028 0
C 7.257473027603271 94.62868426250897 0
C 9.398652958107345 95.83886958104765 0
C 11.539832888611404 97.04905489958634 0
C 13.681012819115471 98.25924021812502 0
C 15.822192749619546 99.4694255366637 0
C 17.963372680123616 100.6796108552024 0
C 20.10455261062769 101.88979617374109 0
C 22.245732541131762 103.09998149227978 0
C 24.386912471635824 104.31016681081846 0
C 26.528092402139894 105.52035212935715 0
C 28.669272332643963 106.73053744789583 0
C 30.810452263148044 107.94072276643452 0
C 32.95163219365211 109.15090808497321 0
C 35.092812124156175 110.3610934035119 0
C 37.233992054660256 111.5712787220506 0
C 39.37517198516432 112.78146404058927 0
C 41.51635191566839 113.99164935912796 0
C 43.65753184617246 115.20183467766664 0
C -37.729844249092785 66.75538370003726 0
C -35.58866431858872 67.96556901857595 0
C -33.44748438808464 69.17575433711464 0
C -31.306304457580577 70.38593965565332 0
C -29.165124527076504 71.59612497419201 0
C -27.02394459657243 72.80631029273069 0
C -24.88276466606837 74.01649561126938 0
C -22.74158473556429 75.22668092980807 0
C -20.600404805060226 76.43686624834676 0
C -18.459224874556153 77.64705156688545 0
C -16.318044944052087 78.85723688542413 0
C -14.176865013548014 80.06742220396282 0
C -12.035685083043937 81.27760752250151 0
C -9.89450515253987 82.48779284104019 0
C -7.753325222035803 83.69797815957888 0
C -5.6121452915317365 84.90816347811757 0
C -3.470965361027662 86.11834879665626 0
C -1.329785430523588 87.32853411519494 0
C 0.8113944999804787 88.53871943373362 0
C 2.9525744304845456 89.74890475227231 0
C 5.09375436098862 90.959090070811 0
C 7.234934291492687 92.16927538934969 0
C 9.37611422199676 93.37946070788838 0
C 11.517294152500835 94.58964602642708 0
C 13.658474083004897 95.79983134496575 0
C 15.799654013508968 97.01001666350443 0
C 17.94083394401304 98.22020198204312 0
C 20.08201387451711 99.43038730058181 0
C 22.223193805021182 100.6405726191205 0
C 24.364373735525255 101.8507579376592 0
C 26.505553666029318 103.06094325619787 0
C 28.646733596533387 104.27112857473657 0
C 30.787913527037457 105.48131389327526 0
C 32.92909345754153 106.69149921181393 0
C 35.0702733880456 107.90168453035263 0
C 37.21145331854967 109.11186984889132 0
C 39.352633249053746 110.32205516743001 0
C 41.49381317955781 111.53224048596869 0
C 43.63499311006188 112.74242580450738 0
C 45.77617304056596 113.95261112304605 0
C 47.91735297107002 115.16279644158475 0
C -35.611203054699274 65.50616014541667 0
C -33.470023124195215 66.71634546395536 0
C -31.328843193691135 67.92653078249405 0
C -29.18766326318707 69.13671610103273 0
C -27.046483332682996 70.34690141957142 0
C -24.905303402178923 71.5570867381101 0
C -22.76412347167486 72.76727205664879 0
C -20.622943541170784 73.97745737518748 0
C -18.481763610666718 75.18764269372618 0
C -16.340583680162645 76.39782801226487 0
C -14.19940374965858 77.60801333080354 0
C -12.058223819154506 78.81819864934224 0
C -9.917043888650433 80.02838396788091 0
C -7.775863958146359 81.2385692864196 0
C -5.634684027642292 82.4487546049583 0
C -3.4935040971382176 83.65893992349699 0
C -1.3523241666341508 84.86912524203568 0
C 0.7888557638699232 86.07931056057437 0
C 2.93003569437399 87.28949587911305 0
C 5.071215624878057 88.49968119765174 0
C 7.212395555382131 89.70986651619043 0
C 9.353575485886198 90.92005183472911 0
C 11.494755416390275 92.1302371532678 0
C 13.635935346894346 93.34042247180649 0
C 15.777115277398408 94.55060779034517 0
C 17.918295207902478 95.76079310888386 0
C 20.05947513840655 96.97097842742255 0
C 22.20065506891062 98.18116374596124 0
C 24.341834999414694 99.39134906449992 0
C 26.483014929918767 100.60153438303861 0
C 28.62419486042283 101.81171970157729 0
C 30.7653747909269 103.02190502011598 0
C 32.90655472143097 104.23209033865467 0
C 35.047734651935045 105.44227565719336 0
C 37.18891458243912 106.65246097573204 0
C 39.330094512943184 107.86264629427075 0
C 41.47127444344726 109.07283161280942 0
C 43.61245437395132 110.2830169313481 0
C 45.75363430445539 111.49320224988679 0
C 47.89481423495947 112.70338756842548 0
C 50.03599416546353 113.91357288696418 0
C 52.17717409596761 115.12375820550285 0
C -35.63374179080985 63.04675127225742 0
C -33.49256186030578 64.2569365907961 0
C -31.35138192980171 65.4671219093348 0
C -29.210201999297638 66.67730722787347 0
C -27.069022068793565 67.88749254641216 0
C -24.9278421382895 69.09767786495085 0
C -22.786662207785426 70.30786318348953 0
C -20.645482277281364 71.51804850202822 0
C -18.504302346777287 72.72823382056691 0
C -16.363122416273214 73.93841913910559 0
C -14.221942485769148 75.14860445764428 0
C -12.080762555265077 76.35878977618297 0
C -9.939582624761009 77.56897509472167 0
C -7.798402694256929 78.77916041326034 0
C -5.657222763752869 79.98934573179902 0
C -3.5160428332488016 81.19953105033771 0
C -1.3748629027447279 82.4097163688764 0
C 0.7663170277593391 83.6199016874151 0
C 2.9074969582634203 84.83008700595379 0
C 5.04867688876748 86.04027232449246 0
C 7.189856819271554 87.25045764303115 0
C 9.33103674977562 88.46064296156985 0
C 11.472216680279692 89.67082828010852 0
C 13.613396610783768 90.88101359864721 0
C 15.75457654128784 92.0911989171859 0
C 17.895756471791902 93.30138423572458 0
C 20.03693640229597 94.51156955426327 0
C 22.17811633280004 95.72175487280197 0
C 24.31929626330411 96.93194019134066 0
C 26.460476193808187 98.14212550987934 0
C 28.60165612431226 99.35231082841803 0
C 30.742836054816323 100.5624961469567 0
C 32.884015985320396 101.7726814654954 0
C 35.02519591582446 102.98286678403409 0
C 37.166375846328535 104.19305210257278 0
C 39.30755577683261 105.40323742111146 0
C 41.448735707336674 106.61342273965015 0
C 43.58991563784075 107.82360805818884 0
C 45.73109556834482 109.03379337672752 0
C 47.87227549884888 110.24397869526621 0
C 50.01345542935296 111.4541640138049 0
C 52.154635359857025 112.66434933234359 0
C 54.2958152903611 113.87453465088227 0
C 56.43699522086518 115.08471996942096 0
C -33.51510059641634 61.797527717636825 0
C -31.37392066591227 63.00771303617551 0
C -29.232740735408203 64.21789835471421 0
C -27.09156080490413 65.42808367325289 0
C -24.950380874400057 66.63826899179158 0
C -22.80920094389599 67.84845431033027 0
C -20.668021013391918 69.05863962886895 0
C -18.526841082887856 70.26882494740764 0
C -16.38566115238378 71.47901026594633 0
C -14.244481221879706 72.689195584485 0
C -12.10330129137564 73.8993809030237 0
C -9.962121360871569 75.10956622156239 0
C -7.820941430367502 76.31975154010108 0
C -5.6797614998634245 77.52993685863976 0
C -3.5385815693593576 78.74012217717845 0
C -1.3974016388552835 79.95030749571714 0
C 0.7437782916487835 81.16049281425583 0
C 2.8849582221528505 82.37067813279451 0
C 5.026138152656931 83.5808634513332 0
C 7.167318083160995 84.79104876987188 0
C 9.308498013665062 86.00123408841057 0
C 11.449677944169132 87.21141940694926 0
C 13.590857874673203 88.42160472548795 0
C 15.73203780517728 89.63179004402663 0
C 17.87321773568135 90.84197536256532 0
C 20.014397666185413 92.052160681104 0
C 22.155577596689483 93.26234599964269 0
C 24.296757527193556 94.47253131818138 0
C 26.437937457697625 95.68271663672007 0
C 28.5791173882017 96.89290195525876 0
C 30.72029731870577 98.10308727379746 0
C 32.861477249209834 99.31327259233612 0
C 35.00265717971391 100.52345791087481 0
C 37.14383711021797 101.7336432294135 0
C 39.28501704072205 102.9438285479522 0
C 41.42619697122612 104.15401386649089 0
C 43.567376901730185 105.36419918502958 0
C 45.70855683223426 106.57438450356827 0
C 47.84973676273833 107.78456982210693 0
C 49.9909166932424 108.99475514064562 0
C 52.13209662374647 110.20494045918431 0
C 54.273276554250536 111.415125777723 0
C 56.41445648475461 112.6253110962617 0
C 58.55563641525869 113.83549641480037 0
C 60.69681634576275 115.04568173333908 0
C -33.537639332526915 59.33811884447756 0
C -31.396459402022845 60.54830416301625 0
C -29.25527947151877 61.75848948155493 0
C -27.11409954101471 62.96867480009362 0
C -24.97291961051063 64.17886011863231 0
C -22.831739680006564 65.38904543717099 0
C -20.69055974950249 66.59923075570968 0
C -18.549379818998418 67.80941607424838 0
C -16.408199888494362 69.01960139278705 0
C -14.26701995799028 70.22978671132574 0
C -12.125840027486213 71.43997202986444 0
C -9.98466009698214 72.65015734840313 0
C -7.843480166478075 73.8603426669418 0
C -5.702300235974001 75.0705279854805 0