ITEM: TIMESTEP
0
ITEM: NUMBER OF ATOMS
8
ITEM: BOX BOUNDS pp pp pp
0.0000000000000000e+00 4.2600002000000003e+00
0.0000000000000000e+00 2.4595120000000001e+00
0.0000000000000000e+00 1.8399999600000001e+01
ITEM: ATOMS id type x y z c_csym c_2[1] c_2[2] c_2[3] c_2[4] c_2[5] c_2[6] c_3 
1 1 0 0 7.5 6.0492 15677.9 15674.2 -109784 -4.46383e-11 -0.0157922 1.04225e-11 -7.41312 
2 1 1.42 0 7.5 6.0492 -8153.99 -8158.96 115021 1.77866e-10 -0.00865528 -8.67999e-12 -7.42656 
3 1 2.13 1.22976 7.5 6.0492 15671.4 15671.6 -109784 -1.00425e-10 -0.00631168 5.3714e-12 -7.41312 
4 1 3.55 1.22976 7.5 6.0492 -8157.57 -8156.08 115021 6.46928e-12 0.0164676 7.07861e-12 -7.42656 
5 2 0.71 1.22976 10.9 6.0492 -8151.76 -8161.89 115021 -1.51018e-11 0.00794428 -8.65827e-13 -7.42656 
6 2 2.13 1.22976 10.9 6.0492 15677.2 15665.8 -109784 -8.47697e-11 0.00221159 -1.14565e-11 -7.41312 
7 2 2.84 0 10.9 6.0492 -8148.18 -8164.77 115021 -1.21596e-10 -0.0171785 -5.51523e-12 -7.42656 
8 2 0 0 10.9 6.0492 15683.7 15668.4 -109784 7.26087e-11 -0.00726893 -1.32439e-11 -7.41312 
