(written by TR)
728	atoms
2	atom types
0	23.4287468	xlo xhi
0	40.5797798	ylo yhi
0	18.4	zlo zhi


Masses

1	12
2	12

Atoms

1 1 1 0 0.644 39.316 3.000 0 0 0
2 1 1 0 0.515 36.864 3.000 0 0 0
3 1 1 0 0.386 34.411 3.000 0 0 0
4 1 1 0 0.257 31.958 3.000 0 0 0
5 1 1 0 0.129 29.506 3.000 0 0 0
6 1 1 0 0.000 27.053 3.000 0 0 0
7 1 1 0 2.832 40.431 3.000 0 0 0
8 1 1 0 2.060 39.242 3.000 0 0 0
9 1 1 0 2.703 37.979 3.000 0 0 0
10 1 1 0 1.931 36.789 3.000 0 0 0
11 1 1 0 2.575 35.526 3.000 0 0 0
12 1 1 0 1.802 34.337 3.000 0 0 0
13 1 1 0 2.446 33.073 3.000 0 0 0
14 1 1 0 1.673 31.884 3.000 0 0 0
15 1 1 0 2.317 30.621 3.000 0 0 0
16 1 1 0 1.545 29.431 3.000 0 0 0
17 1 1 0 2.188 28.168 3.000 0 0 0
18 1 1 0 1.416 26.979 3.000 0 0 0
19 1 1 0 2.060 25.715 3.000 0 0 0
20 1 1 0 1.287 24.526 3.000 0 0 0
21 1 1 0 1.931 23.263 3.000 0 0 0
22 1 1 0 1.159 22.074 3.000 0 0 0
23 1 1 0 1.802 20.810 3.000 0 0 0
24 1 1 0 1.030 19.621 3.000 0 0 0
25 1 1 0 1.673 18.358 3.000 0 0 0
26 1 1 0 0.901 17.168 3.000 0 0 0
27 1 1 0 1.545 15.905 3.000 0 0 0
28 1 1 0 0.772 14.716 3.000 0 0 0
29 1 1 0 1.416 13.452 3.000 0 0 0
30 1 1 0 0.644 12.263 3.000 0 0 0
31 1 1 0 1.287 11.000 3.000 0 0 0
32 1 1 0 0.515 9.810 3.000 0 0 0
33 1 1 0 1.159 8.547 3.000 0 0 0
34 1 1 0 0.386 7.358 3.000 0 0 0
35 1 1 0 1.030 6.094 3.000 0 0 0
36 1 1 0 0.257 4.905 3.000 0 0 0
37 1 1 0 0.901 3.642 3.000 0 0 0
38 1 1 0 0.129 2.453 3.000 0 0 0
39 1 1 0 0.772 1.189 3.000 0 0 0
40 1 1 0 0.000 0.000 3.000 0 0 0
41 1 1 0 4.248 40.357 3.000 0 0 0
42 1 1 0 4.892 39.093 3.000 0 0 0
43 1 1 0 4.119 37.904 3.000 0 0 0
44 1 1 0 4.763 36.641 3.000 0 0 0
45 1 1 0 3.991 35.452 3.000 0 0 0
46 1 1 0 4.634 34.188 3.000 0 0 0
47 1 1 0 3.862 32.999 3.000 0 0 0
48 1 1 0 4.506 31.735 3.000 0 0 0
49 1 1 0 3.733 30.546 3.000 0 0 0
50 1 1 0 4.377 29.283 3.000 0 0 0
51 1 1 0 3.604 28.094 3.000 0 0 0
52 1 1 0 4.248 26.830 3.000 0 0 0
53 1 1 0 3.476 25.641 3.000 0 0 0
54 1 1 0 4.119 24.378 3.000 0 0 0
55 1 1 0 3.347 23.188 3.000 0 0 0
56 1 1 0 3.991 21.925 3.000 0 0 0
57 1 1 0 3.218 20.736 3.000 0 0 0
58 1 1 0 3.862 19.472 3.000 0 0 0
59 1 1 0 3.090 18.283 3.000 0 0 0
60 1 1 0 3.733 17.020 3.000 0 0 0
61 1 1 0 2.961 15.831 3.000 0 0 0
62 1 1 0 3.604 14.567 3.000 0 0 0
63 1 1 0 2.832 13.378 3.000 0 0 0
64 1 1 0 3.476 12.114 3.000 0 0 0
65 1 1 0 2.703 10.925 3.000 0 0 0
66 1 1 0 3.347 9.662 3.000 0 0 0
67 1 1 0 2.575 8.473 3.000 0 0 0
68 1 1 0 3.218 7.209 3.000 0 0 0
69 1 1 0 2.446 6.020 3.000 0 0 0
70 1 1 0 3.090 4.757 3.000 0 0 0
71 1 1 0 2.317 3.567 3.000 0 0 0
72 1 1 0 2.961 2.304 3.000 0 0 0
73 1 1 0 2.188 1.115 3.000 0 0 0
74 1 1 0 7.080 40.208 3.000 0 0 0
75 1 1 0 6.308 39.019 3.000 0 0 0
76 1 1 0 6.951 37.756 3.000 0 0 0
77 1 1 0 6.179 36.566 3.000 0 0 0
78 1 1 0 6.823 35.303 3.000 0 0 0
79 1 1 0 6.050 34.114 3.000 0 0 0
80 1 1 0 6.694 32.850 3.000 0 0 0
81 1 1 0 5.922 31.661 3.000 0 0 0
82 1 1 0 6.565 30.398 3.000 0 0 0
83 1 1 0 5.793 29.209 3.000 0 0 0
84 1 1 0 6.436 27.945 3.000 0 0 0
85 1 1 0 5.664 26.756 3.000 0 0 0
86 1 1 0 6.308 25.492 3.000 0 0 0
87 1 1 0 5.535 24.303 3.000 0 0 0
88 1 1 0 6.179 23.040 3.000 0 0 0
89 1 1 0 5.407 21.851 3.000 0 0 0
90 1 1 0 6.050 20.587 3.000 0 0 0
91 1 1 0 5.278 19.398 3.000 0 0 0
92 1 1 0 5.922 18.135 3.000 0 0 0
93 1 1 0 5.149 16.945 3.000 0 0 0
94 1 1 0 5.793 15.682 3.000 0 0 0
95 1 1 0 5.020 14.493 3.000 0 0 0
96 1 1 0 5.664 13.229 3.000 0 0 0
97 1 1 0 4.892 12.040 3.000 0 0 0
98 1 1 0 5.535 10.777 3.000 0 0 0
99 1 1 0 4.763 9.588 3.000 0 0 0
100 1 1 0 5.407 8.324 3.000 0 0 0
101 1 1 0 4.634 7.135 3.000 0 0 0
102 1 1 0 5.278 5.871 3.000 0 0 0
103 1 1 0 4.506 4.682 3.000 0 0 0
104 1 1 0 5.149 3.419 3.000 0 0 0
105 1 1 0 4.377 2.230 3.000 0 0 0
106 1 1 0 5.020 0.966 3.000 0 0 0
107 1 1 0 8.496 40.134 3.000 0 0 0
108 1 1 0 9.140 38.870 3.000 0 0 0
109 1 1 0 8.367 37.681 3.000 0 0 0
110 1 1 0 9.011 36.418 3.000 0 0 0
111 1 1 0 8.239 35.229 3.000 0 0 0
112 1 1 0 8.882 33.965 3.000 0 0 0
113 1 1 0 8.110 32.776 3.000 0 0 0
114 1 1 0 8.754 31.513 3.000 0 0 0
115 1 1 0 7.981 30.323 3.000 0 0 0
116 1 1 0 8.625 29.060 3.000 0 0 0
117 1 1 0 7.852 27.871 3.000 0 0 0
118 1 1 0 8.496 26.607 3.000 0 0 0
119 1 1 0 7.724 25.418 3.000 0 0 0
120 1 1 0 8.367 24.155 3.000 0 0 0
121 1 1 0 7.595 22.965 3.000 0 0 0
122 1 1 0 8.239 21.702 3.000 0 0 0
123 1 1 0 7.466 20.513 3.000 0 0 0
124 1 1 0 8.110 19.249 3.000 0 0 0
125 1 1 0 7.338 18.060 3.000 0 0 0
126 1 1 0 7.981 16.797 3.000 0 0 0
127 1 1 0 7.209 15.608 3.000 0 0 0
128 1 1 0 7.852 14.344 3.000 0 0 0
129 1 1 0 7.080 13.155 3.000 0 0 0
130 1 1 0 7.724 11.892 3.000 0 0 0
131 1 1 0 6.951 10.702 3.000 0 0 0
132 1 1 0 7.595 9.439 3.000 0 0 0
133 1 1 0 6.823 8.250 3.000 0 0 0
134 1 1 0 7.466 6.986 3.000 0 0 0
135 1 1 0 6.694 5.797 3.000 0 0 0
136 1 1 0 7.338 4.534 3.000 0 0 0
137 1 1 0 6.565 3.344 3.000 0 0 0
138 1 1 0 7.209 2.081 3.000 0 0 0
139 1 1 0 6.436 0.892 3.000 0 0 0
140 1 1 0 11.328 39.985 3.000 0 0 0
141 1 1 0 10.556 38.796 3.000 0 0 0
142 1 1 0 11.199 37.533 3.000 0 0 0
143 1 1 0 10.427 36.343 3.000 0 0 0
144 1 1 0 11.071 35.080 3.000 0 0 0
145 1 1 0 10.298 33.891 3.000 0 0 0
146 1 1 0 10.942 32.627 3.000 0 0 0
147 1 1 0 10.170 31.438 3.000 0 0 0
148 1 1 0 10.813 30.175 3.000 0 0 0
149 1 1 0 10.041 28.986 3.000 0 0 0
150 1 1 0 10.685 27.722 3.000 0 0 0
151 1 1 0 9.912 26.533 3.000 0 0 0
152 1 1 0 10.556 25.269 3.000 0 0 0
153 1 1 0 9.783 24.080 3.000 0 0 0
154 1 1 0 10.427 22.817 3.000 0 0 0
155 1 1 0 9.655 21.628 3.000 0 0 0
156 1 1 0 10.298 20.364 3.000 0 0 0
157 1 1 0 9.526 19.175 3.000 0 0 0
158 1 1 0 10.170 17.912 3.000 0 0 0
159 1 1 0 9.397 16.722 3.000 0 0 0
160 1 1 0 10.041 15.459 3.000 0 0 0
161 1 1 0 9.269 14.270 3.000 0 0 0
162 1 1 0 9.912 13.006 3.000 0 0 0
163 1 1 0 9.140 11.817 3.000 0 0 0
164 1 1 0 9.783 10.554 3.000 0 0 0
165 1 1 0 9.011 9.365 3.000 0 0 0
166 1 1 0 9.655 8.101 3.000 0 0 0
167 1 1 0 8.882 6.912 3.000 0 0 0
168 1 1 0 9.526 5.648 3.000 0 0 0
169 1 1 0 8.754 4.459 3.000 0 0 0
170 1 1 0 9.397 3.196 3.000 0 0 0
171 1 1 0 8.625 2.007 3.000 0 0 0
172 1 1 0 9.269 0.743 3.000 0 0 0
173 1 1 0 12.744 39.911 3.000 0 0 0
174 1 1 0 13.388 38.647 3.000 0 0 0
175 1 1 0 12.615 37.458 3.000 0 0 0
176 1 1 0 13.259 36.195 3.000 0 0 0
177 1 1 0 12.487 35.006 3.000 0 0 0
178 1 1 0 13.130 33.742 3.000 0 0 0
179 1 1 0 12.358 32.553 3.000 0 0 0
180 1 1 0 13.002 31.290 3.000 0 0 0
181 1 1 0 12.229 30.100 3.000 0 0 0
182 1 1 0 12.873 28.837 3.000 0 0 0
183 1 1 0 12.101 27.648 3.000 0 0 0
184 1 1 0 12.744 26.384 3.000 0 0 0
185 1 1 0 11.972 25.195 3.000 0 0 0
186 1 1 0 12.615 23.932 3.000 0 0 0
187 1 1 0 11.843 22.743 3.000 0 0 0
188 1 1 0 12.487 21.479 3.000 0 0 0
189 1 1 0 11.714 20.290 3.000 0 0 0
190 1 1 0 12.358 19.026 3.000 0 0 0
191 1 1 0 11.586 17.837 3.000 0 0 0
192 1 1 0 12.229 16.574 3.000 0 0 0
193 1 1 0 11.457 15.385 3.000 0 0 0
194 1 1 0 12.101 14.121 3.000 0 0 0
195 1 1 0 11.328 12.932 3.000 0 0 0
196 1 1 0 11.972 11.669 3.000 0 0 0
197 1 1 0 11.199 10.479 3.000 0 0 0
198 1 1 0 11.843 9.216 3.000 0 0 0
199 1 1 0 11.071 8.027 3.000 0 0 0
200 1 1 0 11.714 6.763 3.000 0 0 0
201 1 1 0 10.942 5.574 3.000 0 0 0
202 1 1 0 11.586 4.311 3.000 0 0 0
203 1 1 0 10.813 3.122 3.000 0 0 0
204 1 1 0 11.457 1.858 3.000 0 0 0
205 1 1 0 10.685 0.669 3.000 0 0 0
206 1 1 0 15.576 39.762 3.000 0 0 0
207 1 1 0 14.804 38.573 3.000 0 0 0
208 1 1 0 15.448 37.310 3.000 0 0 0
209 1 1 0 14.675 36.120 3.000 0 0 0
210 1 1 0 15.319 34.857 3.000 0 0 0
211 1 1 0 14.546 33.668 3.000 0 0 0
212 1 1 0 15.190 32.404 3.000 0 0 0
213 1 1 0 14.418 31.215 3.000 0 0 0
214 1 1 0 15.061 29.952 3.000 0 0 0
215 1 1 0 14.289 28.763 3.000 0 0 0
216 1 1 0 14.933 27.499 3.000 0 0 0
217 1 1 0 14.160 26.310 3.000 0 0 0
218 1 1 0 14.804 25.046 3.000 0 0 0
219 1 1 0 14.032 23.857 3.000 0 0 0
220 1 1 0 14.675 22.594 3.000 0 0 0
221 1 1 0 13.903 21.405 3.000 0 0 0
222 1 1 0 14.546 20.141 3.000 0 0 0
223 1 1 0 13.774 18.952 3.000 0 0 0
224 1 1 0 14.418 17.689 3.000 0 0 0
225 1 1 0 13.645 16.499 3.000 0 0 0
226 1 1 0 14.289 15.236 3.000 0 0 0
227 1 1 0 13.517 14.047 3.000 0 0 0
228 1 1 0 14.160 12.783 3.000 0 0 0
229 1 1 0 13.388 11.594 3.000 0 0 0
230 1 1 0 14.032 10.331 3.000 0 0 0
231 1 1 0 13.259 9.142 3.000 0 0 0
232 1 1 0 13.903 7.878 3.000 0 0 0
233 1 1 0 13.130 6.689 3.000 0 0 0
234 1 1 0 13.774 5.426 3.000 0 0 0
235 1 1 0 13.002 4.236 3.000 0 0 0
236 1 1 0 13.645 2.973 3.000 0 0 0
237 1 1 0 12.873 1.784 3.000 0 0 0
238 1 1 0 13.517 0.520 3.000 0 0 0
239 1 1 0 16.992 39.688 3.000 0 0 0
240 1 1 0 17.636 38.424 3.000 0 0 0
241 1 1 0 16.864 37.235 3.000 0 0 0
242 1 1 0 17.507 35.972 3.000 0 0 0
243 1 1 0 16.735 34.783 3.000 0 0 0
244 1 1 0 17.378 33.519 3.000 0 0 0
245 1 1 0 16.606 32.330 3.000 0 0 0
246 1 1 0 17.250 31.067 3.000 0 0 0
247 1 1 0 16.477 29.877 3.000 0 0 0
248 1 1 0 17.121 28.614 3.000 0 0 0
249 1 1 0 16.349 27.425 3.000 0 0 0
250 1 1 0 16.992 26.161 3.000 0 0 0
251 1 1 0 16.220 24.972 3.000 0 0 0
252 1 1 0 16.864 23.709 3.000 0 0 0
253 1 1 0 16.091 22.520 3.000 0 0 0
254 1 1 0 16.735 21.256 3.000 0 0 0
255 1 1 0 15.962 20.067 3.000 0 0 0
256 1 1 0 16.606 18.803 3.000 0 0 0
257 1 1 0 15.834 17.614 3.000 0 0 0
258 1 1 0 16.477 16.351 3.000 0 0 0
259 1 1 0 15.705 15.162 3.000 0 0 0
260 1 1 0 16.349 13.898 3.000 0 0 0
261 1 1 0 15.576 12.709 3.000 0 0 0
262 1 1 0 16.220 11.446 3.000 0 0 0
263 1 1 0 15.448 10.256 3.000 0 0 0
264 1 1 0 16.091 8.993 3.000 0 0 0
265 1 1 0 15.319 7.804 3.000 0 0 0
266 1 1 0 15.962 6.540 3.000 0 0 0
267 1 1 0 15.190 5.351 3.000 0 0 0
268 1 1 0 15.834 4.088 3.000 0 0 0
269 1 1 0 15.061 2.899 3.000 0 0 0
270 1 1 0 15.705 1.635 3.000 0 0 0
271 1 1 0 14.933 0.446 3.000 0 0 0
272 1 1 0 19.824 39.539 3.000 0 0 0
273 1 1 0 19.052 38.350 3.000 0 0 0
274 1 1 0 19.696 37.087 3.000 0 0 0
275 1 1 0 18.923 35.897 3.000 0 0 0
276 1 1 0 19.567 34.634 3.000 0 0 0
277 1 1 0 18.794 33.445 3.000 0 0 0
278 1 1 0 19.438 32.181 3.000 0 0 0
279 1 1 0 18.666 30.992 3.000 0 0 0
280 1 1 0 19.309 29.729 3.000 0 0 0
281 1 1 0 18.537 28.540 3.000 0 0 0
282 1 1 0 19.181 27.276 3.000 0 0 0
283 1 1 0 18.408 26.087 3.000 0 0 0
284 1 1 0 19.052 24.824 3.000 0 0 0
285 1 1 0 18.280 23.634 3.000 0 0 0
286 1 1 0 18.923 22.371 3.000 0 0 0
287 1 1 0 18.151 21.182 3.000 0 0 0
288 1 1 0 18.794 19.918 3.000 0 0 0
289 1 1 0 18.022 18.729 3.000 0 0 0
290 1 1 0 18.666 17.466 3.000 0 0 0
291 1 1 0 17.893 16.277 3.000 0 0 0
292 1 1 0 18.537 15.013 3.000 0 0 0
293 1 1 0 17.765 13.824 3.000 0 0 0
294 1 1 0 18.408 12.560 3.000 0 0 0
295 1 1 0 17.636 11.371 3.000 0 0 0
296 1 1 0 18.280 10.108 3.000 0 0 0
297 1 1 0 17.507 8.919 3.000 0 0 0
298 1 1 0 18.151 7.655 3.000 0 0 0
299 1 1 0 17.378 6.466 3.000 0 0 0
300 1 1 0 18.022 5.203 3.000 0 0 0
301 1 1 0 17.250 4.013 3.000 0 0 0
302 1 1 0 17.893 2.750 3.000 0 0 0
303 1 1 0 17.121 1.561 3.000 0 0 0
304 1 1 0 17.765 0.297 3.000 0 0 0
305 1 1 0 21.240 39.465 3.000 0 0 0
306 1 1 0 21.884 38.201 3.000 0 0 0
307 1 1 0 21.112 37.012 3.000 0 0 0
308 1 1 0 21.755 35.749 3.000 0 0 0
309 1 1 0 20.983 34.560 3.000 0 0 0
310 1 1 0 21.627 33.296 3.000 0 0 0
311 1 1 0 20.854 32.107 3.000 0 0 0
312 1 1 0 21.498 30.844 3.000 0 0 0
313 1 1 0 20.725 29.654 3.000 0 0 0
314 1 1 0 21.369 28.391 3.000 0 0 0
315 1 1 0 20.597 27.202 3.000 0 0 0
316 1 1 0 21.240 25.938 3.000 0 0 0
317 1 1 0 20.468 24.749 3.000 0 0 0
318 1 1 0 21.112 23.486 3.000 0 0 0
319 1 1 0 20.339 22.297 3.000 0 0 0
320 1 1 0 20.983 21.033 3.000 0 0 0
321 1 1 0 20.211 19.844 3.000 0 0 0
322 1 1 0 20.854 18.580 3.000 0 0 0
323 1 1 0 20.082 17.391 3.000 0 0 0
324 1 1 0 20.725 16.128 3.000 0 0 0
325 1 1 0 19.953 14.939 3.000 0 0 0
326 1 1 0 20.597 13.675 3.000 0 0 0
327 1 1 0 19.824 12.486 3.000 0 0 0
328 1 1 0 20.468 11.223 3.000 0 0 0
329 1 1 0 19.696 10.033 3.000 0 0 0
330 1 1 0 20.339 8.770 3.000 0 0 0
331 1 1 0 19.567 7.581 3.000 0 0 0
332 1 1 0 20.211 6.317 3.000 0 0 0
333 1 1 0 19.438 5.128 3.000 0 0 0
334 1 1 0 20.082 3.865 3.000 0 0 0
335 1 1 0 19.309 2.676 3.000 0 0 0
336 1 1 0 19.953 1.412 3.000 0 0 0
337 1 1 0 19.181 0.223 3.000 0 0 0
338 1 1 0 23.300 38.127 3.000 0 0 0
339 1 1 0 23.171 35.675 3.000 0 0 0
340 1 1 0 23.043 33.222 3.000 0 0 0
341 1 1 0 22.914 30.769 3.000 0 0 0
342 1 1 0 22.785 28.317 3.000 0 0 0
343 1 1 0 22.656 25.864 3.000 0 0 0
344 1 1 0 23.300 24.601 3.000 0 0 0
345 1 1 0 22.528 23.411 3.000 0 0 0
346 1 1 0 23.171 22.148 3.000 0 0 0
347 1 1 0 22.399 20.959 3.000 0 0 0
348 1 1 0 23.043 19.695 3.000 0 0 0
349 1 1 0 22.270 18.506 3.000 0 0 0
350 1 1 0 22.914 17.243 3.000 0 0 0
351 1 1 0 22.141 16.054 3.000 0 0 0
352 1 1 0 22.785 14.790 3.000 0 0 0
353 1 1 0 22.013 13.601 3.000 0 0 0
354 1 1 0 22.656 12.337 3.000 0 0 0
355 1 1 0 21.884 11.148 3.000 0 0 0
356 1 1 0 22.528 9.885 3.000 0 0 0
357 1 1 0 21.755 8.696 3.000 0 0 0
358 1 1 0 22.399 7.432 3.000 0 0 0
359 1 1 0 21.627 6.243 3.000 0 0 0
360 1 1 0 22.270 4.980 3.000 0 0 0
361 1 1 0 21.498 3.790 3.000 0 0 0
362 1 1 0 22.141 2.527 3.000 0 0 0
363 1 1 0 21.369 1.338 3.000 0 0 0
364 1 1 0 22.013 0.074 3.000 0 0 0
365 2 2 0 -0.000 13.527 6.400 0 0 0
366 2 2 0 0.129 11.074 6.400 0 0 0
367 2 2 0 0.257 8.621 6.400 0 0 0
368 2 2 0 0.386 6.169 6.400 0 0 0
369 2 2 0 0.515 3.716 6.400 0 0 0
370 2 2 0 0.644 1.263 6.400 0 0 0
371 2 2 0 0.000 0.000 6.400 0 0 0
372 2 2 0 0.772 39.391 6.400 0 0 0
373 2 2 0 0.129 38.127 6.400 0 0 0
374 2 2 0 0.901 36.938 6.400 0 0 0
375 2 2 0 0.257 35.675 6.400 0 0 0
376 2 2 0 1.030 34.485 6.400 0 0 0
377 2 2 0 0.386 33.222 6.400 0 0 0
378 2 2 0 1.159 32.033 6.400 0 0 0
379 2 2 0 0.515 30.769 6.400 0 0 0
380 2 2 0 1.287 29.580 6.400 0 0 0
381 2 2 0 0.644 28.317 6.400 0 0 0
382 2 2 0 1.416 27.128 6.400 0 0 0
383 2 2 0 0.772 25.864 6.400 0 0 0
384 2 2 0 1.545 24.675 6.400 0 0 0
385 2 2 0 0.901 23.411 6.400 0 0 0
386 2 2 0 1.673 22.222 6.400 0 0 0
387 2 2 0 1.030 20.959 6.400 0 0 0
388 2 2 0 1.802 19.770 6.400 0 0 0
389 2 2 0 1.159 18.506 6.400 0 0 0
390 2 2 0 1.931 17.317 6.400 0 0 0
391 2 2 0 1.287 16.054 6.400 0 0 0
392 2 2 0 2.060 14.864 6.400 0 0 0
393 2 2 0 1.416 13.601 6.400 0 0 0
394 2 2 0 2.188 12.412 6.400 0 0 0
395 2 2 0 1.545 11.148 6.400 0 0 0
396 2 2 0 2.317 9.959 6.400 0 0 0
397 2 2 0 1.673 8.696 6.400 0 0 0
398 2 2 0 2.446 7.507 6.400 0 0 0
399 2 2 0 1.802 6.243 6.400 0 0 0
400 2 2 0 2.575 5.054 6.400 0 0 0
401 2 2 0 1.931 3.790 6.400 0 0 0
402 2 2 0 2.703 2.601 6.400 0 0 0
403 2 2 0 2.060 1.338 6.400 0 0 0
404 2 2 0 2.832 0.149 6.400 0 0 0
405 2 2 0 2.188 39.465 6.400 0 0 0
406 2 2 0 2.961 38.276 6.400 0 0 0
407 2 2 0 2.317 37.012 6.400 0 0 0
408 2 2 0 3.090 35.823 6.400 0 0 0
409 2 2 0 2.446 34.560 6.400 0 0 0
410 2 2 0 3.218 33.371 6.400 0 0 0
411 2 2 0 2.575 32.107 6.400 0 0 0
412 2 2 0 3.347 30.918 6.400 0 0 0
413 2 2 0 2.703 29.654 6.400 0 0 0
414 2 2 0 3.476 28.465 6.400 0 0 0
415 2 2 0 2.832 27.202 6.400 0 0 0
416 2 2 0 3.604 26.013 6.400 0 0 0
417 2 2 0 2.961 24.749 6.400 0 0 0
418 2 2 0 3.733 23.560 6.400 0 0 0
419 2 2 0 3.090 22.297 6.400 0 0 0
420 2 2 0 3.862 21.107 6.400 0 0 0
421 2 2 0 3.218 19.844 6.400 0 0 0
422 2 2 0 3.991 18.655 6.400 0 0 0
423 2 2 0 3.347 17.391 6.400 0 0 0
424 2 2 0 4.119 16.202 6.400 0 0 0
425 2 2 0 3.476 14.939 6.400 0 0 0
426 2 2 0 4.248 13.750 6.400 0 0 0
427 2 2 0 3.604 12.486 6.400 0 0 0
428 2 2 0 4.377 11.297 6.400 0 0 0
429 2 2 0 3.733 10.033 6.400 0 0 0
430 2 2 0 4.506 8.844 6.400 0 0 0
431 2 2 0 3.862 7.581 6.400 0 0 0
432 2 2 0 4.634 6.392 6.400 0 0 0
433 2 2 0 3.991 5.128 6.400 0 0 0
434 2 2 0 4.763 3.939 6.400 0 0 0
435 2 2 0 4.119 2.676 6.400 0 0 0
436 2 2 0 4.892 1.486 6.400 0 0 0
437 2 2 0 4.248 0.223 6.400 0 0 0
438 2 2 0 5.020 39.614 6.400 0 0 0
439 2 2 0 4.377 38.350 6.400 0 0 0
440 2 2 0 5.149 37.161 6.400 0 0 0
441 2 2 0 4.506 35.897 6.400 0 0 0
442 2 2 0 5.278 34.708 6.400 0 0 0
443 2 2 0 4.634 33.445 6.400 0 0 0
444 2 2 0 5.407 32.256 6.400 0 0 0
445 2 2 0 4.763 30.992 6.400 0 0 0
446 2 2 0 5.535 29.803 6.400 0 0 0
447 2 2 0 4.892 28.540 6.400 0 0 0
448 2 2 0 5.664 27.350 6.400 0 0 0
449 2 2 0 5.020 26.087 6.400 0 0 0
450 2 2 0 5.793 24.898 6.400 0 0 0
451 2 2 0 5.149 23.634 6.400 0 0 0
452 2 2 0 5.922 22.445 6.400 0 0 0
453 2 2 0 5.278 21.182 6.400 0 0 0
454 2 2 0 6.050 19.993 6.400 0 0 0
455 2 2 0 5.407 18.729 6.400 0 0 0
456 2 2 0 6.179 17.540 6.400 0 0 0
457 2 2 0 5.535 16.277 6.400 0 0 0
458 2 2 0 6.308 15.087 6.400 0 0 0
459 2 2 0 5.664 13.824 6.400 0 0 0
460 2 2 0 6.436 12.635 6.400 0 0 0
461 2 2 0 5.793 11.371 6.400 0 0 0
462 2 2 0 6.565 10.182 6.400 0 0 0
463 2 2 0 5.922 8.919 6.400 0 0 0
464 2 2 0 6.694 7.729 6.400 0 0 0
465 2 2 0 6.050 6.466 6.400 0 0 0
466 2 2 0 6.823 5.277 6.400 0 0 0
467 2 2 0 6.179 4.013 6.400 0 0 0
468 2 2 0 6.951 2.824 6.400 0 0 0
469 2 2 0 6.308 1.561 6.400 0 0 0
470 2 2 0 7.080 0.372 6.400 0 0 0
471 2 2 0 6.436 39.688 6.400 0 0 0
472 2 2 0 7.209 38.499 6.400 0 0 0
473 2 2 0 6.565 37.235 6.400 0 0 0
474 2 2 0 7.338 36.046 6.400 0 0 0
475 2 2 0 6.694 34.783 6.400 0 0 0
476 2 2 0 7.466 33.594 6.400 0 0 0
477 2 2 0 6.823 32.330 6.400 0 0 0
478 2 2 0 7.595 31.141 6.400 0 0 0
479 2 2 0 6.951 29.877 6.400 0 0 0
480 2 2 0 7.724 28.688 6.400 0 0 0
481 2 2 0 7.080 27.425 6.400 0 0 0
482 2 2 0 7.852 26.236 6.400 0 0 0
483 2 2 0 7.209 24.972 6.400 0 0 0
484 2 2 0 7.981 23.783 6.400 0 0 0
485 2 2 0 7.338 22.520 6.400 0 0 0
486 2 2 0 8.110 21.330 6.400 0 0 0
487 2 2 0 7.466 20.067 6.400 0 0 0
488 2 2 0 8.239 18.878 6.400 0 0 0
489 2 2 0 7.595 17.614 6.400 0 0 0
490 2 2 0 8.367 16.425 6.400 0 0 0
491 2 2 0 7.724 15.162 6.400 0 0 0
492 2 2 0 8.496 13.973 6.400 0 0 0
493 2 2 0 7.852 12.709 6.400 0 0 0
494 2 2 0 8.625 11.520 6.400 0 0 0
495 2 2 0 7.981 10.256 6.400 0 0 0
496 2 2 0 8.754 9.067 6.400 0 0 0
497 2 2 0 8.110 7.804 6.400 0 0 0
498 2 2 0 8.882 6.615 6.400 0 0 0
499 2 2 0 8.239 5.351 6.400 0 0 0
500 2 2 0 9.011 4.162 6.400 0 0 0
501 2 2 0 8.367 2.899 6.400 0 0 0
502 2 2 0 9.140 1.709 6.400 0 0 0
503 2 2 0 8.496 0.446 6.400 0 0 0
504 2 2 0 9.269 39.837 6.400 0 0 0
505 2 2 0 8.625 38.573 6.400 0 0 0
506 2 2 0 9.397 37.384 6.400 0 0 0
507 2 2 0 8.754 36.120 6.400 0 0 0
508 2 2 0 9.526 34.931 6.400 0 0 0
509 2 2 0 8.882 33.668 6.400 0 0 0
510 2 2 0 9.655 32.479 6.400 0 0 0
511 2 2 0 9.011 31.215 6.400 0 0 0
512 2 2 0 9.783 30.026 6.400 0 0 0
513 2 2 0 9.140 28.763 6.400 0 0 0
514 2 2 0 9.912 27.573 6.400 0 0 0
515 2 2 0 9.269 26.310 6.400 0 0 0
516 2 2 0 10.041 25.121 6.400 0 0 0
517 2 2 0 9.397 23.857 6.400 0 0 0
518 2 2 0 10.170 22.668 6.400 0 0 0
519 2 2 0 9.526 21.405 6.400 0 0 0
520 2 2 0 10.298 20.216 6.400 0 0 0
521 2 2 0 9.655 18.952 6.400 0 0 0
522 2 2 0 10.427 17.763 6.400 0 0 0
523 2 2 0 9.783 16.499 6.400 0 0 0
524 2 2 0 10.556 15.310 6.400 0 0 0
525 2 2 0 9.912 14.047 6.400 0 0 0
526 2 2 0 10.685 12.858 6.400 0 0 0
527 2 2 0 10.041 11.594 6.400 0 0 0
528 2 2 0 10.813 10.405 6.400 0 0 0
529 2 2 0 10.170 9.142 6.400 0 0 0
530 2 2 0 10.942 7.952 6.400 0 0 0
531 2 2 0 10.298 6.689 6.400 0 0 0
532 2 2 0 11.071 5.500 6.400 0 0 0
533 2 2 0 10.427 4.236 6.400 0 0 0
534 2 2 0 11.199 3.047 6.400 0 0 0
535 2 2 0 10.556 1.784 6.400 0 0 0
536 2 2 0 11.328 0.595 6.400 0 0 0
537 2 2 0 10.685 39.911 6.400 0 0 0
538 2 2 0 11.457 38.722 6.400 0 0 0
539 2 2 0 10.813 37.458 6.400 0 0 0
540 2 2 0 11.586 36.269 6.400 0 0 0
541 2 2 0 10.942 35.006 6.400 0 0 0
542 2 2 0 11.714 33.816 6.400 0 0 0
543 2 2 0 11.071 32.553 6.400 0 0 0
544 2 2 0 11.843 31.364 6.400 0 0 0
545 2 2 0 11.199 30.100 6.400 0 0 0
546 2 2 0 11.972 28.911 6.400 0 0 0
547 2 2 0 11.328 27.648 6.400 0 0 0
548 2 2 0 12.101 26.459 6.400 0 0 0
549 2 2 0 11.457 25.195 6.400 0 0 0
550 2 2 0 12.229 24.006 6.400 0 0 0
551 2 2 0 11.586 22.743 6.400 0 0 0
552 2 2 0 12.358 21.553 6.400 0 0 0
553 2 2 0 11.714 20.290 6.400 0 0 0
554 2 2 0 12.487 19.101 6.400 0 0 0
555 2 2 0 11.843 17.837 6.400 0 0 0
556 2 2 0 12.615 16.648 6.400 0 0 0
557 2 2 0 11.972 15.385 6.400 0 0 0
558 2 2 0 12.744 14.195 6.400 0 0 0
559 2 2 0 12.101 12.932 6.400 0 0 0
560 2 2 0 12.873 11.743 6.400 0 0 0
561 2 2 0 12.229 10.479 6.400 0 0 0
562 2 2 0 13.002 9.290 6.400 0 0 0
563 2 2 0 12.358 8.027 6.400 0 0 0
564 2 2 0 13.130 6.838 6.400 0 0 0
565 2 2 0 12.487 5.574 6.400 0 0 0
566 2 2 0 13.259 4.385 6.400 0 0 0
567 2 2 0 12.615 3.122 6.400 0 0 0
568 2 2 0 13.388 1.932 6.400 0 0 0
569 2 2 0 12.744 0.669 6.400 0 0 0
570 2 2 0 13.517 40.060 6.400 0 0 0
571 2 2 0 12.873 38.796 6.400 0 0 0
572 2 2 0 13.645 37.607 6.400 0 0 0
573 2 2 0 13.002 36.343 6.400 0 0 0
574 2 2 0 13.774 35.154 6.400 0 0 0
575 2 2 0 13.130 33.891 6.400 0 0 0
576 2 2 0 13.903 32.702 6.400 0 0 0
577 2 2 0 13.259 31.438 6.400 0 0 0
578 2 2 0 14.032 30.249 6.400 0 0 0
579 2 2 0 13.388 28.986 6.400 0 0 0
580 2 2 0 14.160 27.796 6.400 0 0 0
581 2 2 0 13.517 26.533 6.400 0 0 0
582 2 2 0 14.289 25.344 6.400 0 0 0
583 2 2 0 13.645 24.080 6.400 0 0 0
584 2 2 0 14.418 22.891 6.400 0 0 0
585 2 2 0 13.774 21.628 6.400 0 0 0
586 2 2 0 14.546 20.439 6.400 0 0 0
587 2 2 0 13.903 19.175 6.400 0 0 0
588 2 2 0 14.675 17.986 6.400 0 0 0
589 2 2 0 14.032 16.722 6.400 0 0 0
590 2 2 0 14.804 15.533 6.400 0 0 0
591 2 2 0 14.160 14.270 6.400 0 0 0
592 2 2 0 14.933 13.081 6.400 0 0 0
593 2 2 0 14.289 11.817 6.400 0 0 0
594 2 2 0 15.061 10.628 6.400 0 0 0
595 2 2 0 14.418 9.365 6.400 0 0 0
596 2 2 0 15.190 8.175 6.400 0 0 0
597 2 2 0 14.546 6.912 6.400 0 0 0
598 2 2 0 15.319 5.723 6.400 0 0 0
599 2 2 0 14.675 4.459 6.400 0 0 0
600 2 2 0 15.448 3.270 6.400 0 0 0
601 2 2 0 14.804 2.007 6.400 0 0 0
602 2 2 0 15.576 0.818 6.400 0 0 0
603 2 2 0 14.933 40.134 6.400 0 0 0
604 2 2 0 15.705 38.945 6.400 0 0 0
605 2 2 0 15.061 37.681 6.400 0 0 0
606 2 2 0 15.834 36.492 6.400 0 0 0
607 2 2 0 15.190 35.229 6.400 0 0 0
608 2 2 0 15.962 34.039 6.400 0 0 0
609 2 2 0 15.319 32.776 6.400 0 0 0
610 2 2 0 16.091 31.587 6.400 0 0 0
611 2 2 0 15.448 30.323 6.400 0 0 0
612 2 2 0 16.220 29.134 6.400 0 0 0
613 2 2 0 15.576 27.871 6.400 0 0 0
614 2 2 0 16.349 26.682 6.400 0 0 0
615 2 2 0 15.705 25.418 6.400 0 0 0
616 2 2 0 16.477 24.229 6.400 0 0 0
617 2 2 0 15.834 22.965 6.400 0 0 0
618 2 2 0 16.606 21.776 6.400 0 0 0
619 2 2 0 15.962 20.513 6.400 0 0 0
620 2 2 0 16.735 19.324 6.400 0 0 0
621 2 2 0 16.091 18.060 6.400 0 0 0
622 2 2 0 16.864 16.871 6.400 0 0 0
623 2 2 0 16.220 15.608 6.400 0 0 0
624 2 2 0 16.992 14.418 6.400 0 0 0
625 2 2 0 16.349 13.155 6.400 0 0 0
626 2 2 0 17.121 11.966 6.400 0 0 0
627 2 2 0 16.477 10.702 6.400 0 0 0
628 2 2 0 17.250 9.513 6.400 0 0 0
629 2 2 0 16.606 8.250 6.400 0 0 0
630 2 2 0 17.378 7.061 6.400 0 0 0
631 2 2 0 16.735 5.797 6.400 0 0 0
632 2 2 0 17.507 4.608 6.400 0 0 0
633 2 2 0 16.864 3.344 6.400 0 0 0
634 2 2 0 17.636 2.155 6.400 0 0 0
635 2 2 0 16.992 0.892 6.400 0 0 0
636 2 2 0 17.765 40.282 6.400 0 0 0
637 2 2 0 17.121 39.019 6.400 0 0 0
638 2 2 0 17.893 37.830 6.400 0 0 0
639 2 2 0 17.250 36.566 6.400 0 0 0
640 2 2 0 18.022 35.377 6.400 0 0 0
641 2 2 0 17.378 34.114 6.400 0 0 0
642 2 2 0 18.151 32.925 6.400 0 0 0
643 2 2 0 17.507 31.661 6.400 0 0 0
644 2 2 0 18.280 30.472 6.400 0 0 0
645 2 2 0 17.636 29.209 6.400 0 0 0
646 2 2 0 18.408 28.019 6.400 0 0 0
647 2 2 0 17.765 26.756 6.400 0 0 0
648 2 2 0 18.537 25.567 6.400 0 0 0
649 2 2 0 17.893 24.303 6.400 0 0 0
650 2 2 0 18.666 23.114 6.400 0 0 0
651 2 2 0 18.022 21.851 6.400 0 0 0
652 2 2 0 18.794 20.661 6.400 0 0 0
653 2 2 0 18.151 19.398 6.400 0 0 0
654 2 2 0 18.923 18.209 6.400 0 0 0
655 2 2 0 18.280 16.945 6.400 0 0 0
656 2 2 0 19.052 15.756 6.400 0 0 0
657 2 2 0 18.408 14.493 6.400 0 0 0
658 2 2 0 19.181 13.304 6.400 0 0 0
659 2 2 0 18.537 12.040 6.400 0 0 0
660 2 2 0 19.309 10.851 6.400 0 0 0
661 2 2 0 18.666 9.588 6.400 0 0 0
662 2 2 0 19.438 8.398 6.400 0 0 0
663 2 2 0 18.794 7.135 6.400 0 0 0
664 2 2 0 19.567 5.946 6.400 0 0 0
665 2 2 0 18.923 4.682 6.400 0 0 0
666 2 2 0 19.696 3.493 6.400 0 0 0
667 2 2 0 19.052 2.230 6.400 0 0 0
668 2 2 0 19.824 1.041 6.400 0 0 0
669 2 2 0 19.181 40.357 6.400 0 0 0
670 2 2 0 19.953 39.168 6.400 0 0 0
671 2 2 0 19.309 37.904 6.400 0 0 0
672 2 2 0 20.082 36.715 6.400 0 0 0
673 2 2 0 19.438 35.452 6.400 0 0 0
674 2 2 0 20.211 34.262 6.400 0 0 0
675 2 2 0 19.567 32.999 6.400 0 0 0
676 2 2 0 20.339 31.810 6.400 0 0 0
677 2 2 0 19.696 30.546 6.400 0 0 0
678 2 2 0 20.468 29.357 6.400 0 0 0
679 2 2 0 19.824 28.094 6.400 0 0 0
680 2 2 0 20.597 26.905 6.400 0 0 0
681 2 2 0 19.953 25.641 6.400 0 0 0
682 2 2 0 20.725 24.452 6.400 0 0 0
683 2 2 0 20.082 23.188 6.400 0 0 0
684 2 2 0 20.854 21.999 6.400 0 0 0
685 2 2 0 20.211 20.736 6.400 0 0 0
686 2 2 0 20.983 19.547 6.400 0 0 0
687 2 2 0 20.339 18.283 6.400 0 0 0
688 2 2 0 21.112 17.094 6.400 0 0 0
689 2 2 0 20.468 15.831 6.400 0 0 0
690 2 2 0 21.240 14.641 6.400 0 0 0
691 2 2 0 20.597 13.378 6.400 0 0 0
692 2 2 0 21.369 12.189 6.400 0 0 0
693 2 2 0 20.725 10.925 6.400 0 0 0
694 2 2 0 21.498 9.736 6.400 0 0 0
695 2 2 0 20.854 8.473 6.400 0 0 0
696 2 2 0 21.627 7.284 6.400 0 0 0
697 2 2 0 20.983 6.020 6.400 0 0 0
698 2 2 0 21.755 4.831 6.400 0 0 0
699 2 2 0 21.112 3.567 6.400 0 0 0
700 2 2 0 21.884 2.378 6.400 0 0 0
701 2 2 0 21.240 1.115 6.400 0 0 0
702 2 2 0 22.013 40.505 6.400 0 0 0
703 2 2 0 21.369 39.242 6.400 0 0 0
704 2 2 0 22.141 38.053 6.400 0 0 0
705 2 2 0 21.498 36.789 6.400 0 0 0
706 2 2 0 22.270 35.600 6.400 0 0 0
707 2 2 0 21.627 34.337 6.400 0 0 0
708 2 2 0 22.399 33.148 6.400 0 0 0
709 2 2 0 21.755 31.884 6.400 0 0 0
710 2 2 0 22.528 30.695 6.400 0 0 0
711 2 2 0 21.884 29.431 6.400 0 0 0
712 2 2 0 22.656 28.242 6.400 0 0 0
713 2 2 0 22.013 26.979 6.400 0 0 0
714 2 2 0 22.785 25.790 6.400 0 0 0
715 2 2 0 22.141 24.526 6.400 0 0 0
716 2 2 0 22.914 23.337 6.400 0 0 0
717 2 2 0 22.270 22.074 6.400 0 0 0
718 2 2 0 23.043 20.884 6.400 0 0 0
719 2 2 0 22.399 19.621 6.400 0 0 0
720 2 2 0 23.171 18.432 6.400 0 0 0
721 2 2 0 22.528 17.168 6.400 0 0 0
722 2 2 0 23.300 15.979 6.400 0 0 0
723 2 2 0 22.656 14.716 6.400 0 0 0
724 2 2 0 22.785 12.263 6.400 0 0 0
725 2 2 0 22.914 9.810 6.400 0 0 0
726 2 2 0 23.043 7.358 6.400 0 0 0
727 2 2 0 23.171 4.905 6.400 0 0 0
728 2 2 0 23.300 2.453 6.400 0 0 0
