(written by TR)

728	atoms
2	atom types
0	23.4287468	xlo xhi
0	40.5797798	ylo yhi
0	15	zlo zhi


Masses

1	12
2	12

Atoms

1 1 1 0 0.64364689 39.31630680 3.00000000 0 0 0
2 1 1 0 0.51491751 36.86368274 3.00000000 0 0 0
3 1 1 0 0.38618813 34.41105869 3.00000000 0 0 0
4 1 1 0 0.25745876 31.95843464 3.00000000 0 0 0
5 1 1 0 0.12872938 29.50581058 3.00000000 0 0 0
6 1 1 0 0.00000000 27.05318653 3.00000000 0 0 0
7 1 1 0 2.83204632 40.43113591 3.00000000 0 0 0
8 1 1 0 2.05967005 39.24198485 3.00000000 0 0 0
9 1 1 0 2.70331694 37.97851186 3.00000000 0 0 0
10 1 1 0 1.93094067 36.78936080 3.00000000 0 0 0
11 1 1 0 2.57458756 35.52588780 3.00000000 0 0 0
12 1 1 0 1.80221129 34.33673675 3.00000000 0 0 0
13 1 1 0 2.44585818 33.07326375 3.00000000 0 0 0
14 1 1 0 1.67348191 31.88411269 3.00000000 0 0 0
15 1 1 0 2.31712880 30.62063970 3.00000000 0 0 0
16 1 1 0 1.54475254 29.43148864 3.00000000 0 0 0
17 1 1 0 2.18839943 28.16801564 3.00000000 0 0 0
18 1 1 0 1.41602316 26.97886459 3.00000000 0 0 0
19 1 1 0 2.05967005 25.71539159 3.00000000 0 0 0
20 1 1 0 1.28729378 24.52624053 3.00000000 0 0 0
21 1 1 0 1.93094067 23.26276754 3.00000000 0 0 0
22 1 1 0 1.15856440 22.07361648 3.00000000 0 0 0
23 1 1 0 1.80221129 20.81014348 3.00000000 0 0 0
24 1 1 0 1.02983502 19.62099243 3.00000000 0 0 0
25 1 1 0 1.67348191 18.35751943 3.00000000 0 0 0
26 1 1 0 0.90110565 17.16836837 3.00000000 0 0 0
27 1 1 0 1.54475254 15.90489538 3.00000000 0 0 0
28 1 1 0 0.77237627 14.71574432 3.00000000 0 0 0
29 1 1 0 1.41602316 13.45227132 3.00000000 0 0 0
30 1 1 0 0.64364689 12.26312027 3.00000000 0 0 0
31 1 1 0 1.28729378 10.99964727 3.00000000 0 0 0
32 1 1 0 0.51491751 9.81049621 3.00000000 0 0 0
33 1 1 0 1.15856440 8.54702322 3.00000000 0 0 0
34 1 1 0 0.38618813 7.35787216 3.00000000 0 0 0
35 1 1 0 1.02983502 6.09439916 3.00000000 0 0 0
36 1 1 0 0.25745876 4.90524811 3.00000000 0 0 0
37 1 1 0 0.90110565 3.64177511 3.00000000 0 0 0
38 1 1 0 0.12872938 2.45262405 3.00000000 0 0 0
39 1 1 0 0.77237627 1.18915106 3.00000000 0 0 0
40 1 1 0 0.00000000 0.00000000 3.00000000 0 0 0
41 1 1 0 4.24806947 40.35681397 3.00000000 0 0 0
42 1 1 0 4.89171636 39.09334097 3.00000000 0 0 0
43 1 1 0 4.11934010 37.90418992 3.00000000 0 0 0
44 1 1 0 4.76298698 36.64071692 3.00000000 0 0 0
45 1 1 0 3.99061072 35.45156586 3.00000000 0 0 0
46 1 1 0 4.63425761 34.18809287 3.00000000 0 0 0
47 1 1 0 3.86188134 32.99894181 3.00000000 0 0 0
48 1 1 0 4.50552823 31.73546881 3.00000000 0 0 0
49 1 1 0 3.73315196 30.54631776 3.00000000 0 0 0
50 1 1 0 4.37679885 29.28284476 3.00000000 0 0 0
51 1 1 0 3.60442258 28.09369370 3.00000000 0 0 0
52 1 1 0 4.24806947 26.83022071 3.00000000 0 0 0
53 1 1 0 3.47569321 25.64106965 3.00000000 0 0 0
54 1 1 0 4.11934009 24.37759665 3.00000000 0 0 0
55 1 1 0 3.34696383 23.18844560 3.00000000 0 0 0
56 1 1 0 3.99061072 21.92497260 3.00000000 0 0 0
57 1 1 0 3.21823445 20.73582154 3.00000000 0 0 0
58 1 1 0 3.86188134 19.47234854 3.00000000 0 0 0
59 1 1 0 3.08950507 18.28319749 3.00000000 0 0 0
60 1 1 0 3.73315196 17.01972449 3.00000000 0 0 0
61 1 1 0 2.96077569 15.83057344 3.00000000 0 0 0
62 1 1 0 3.60442258 14.56710044 3.00000000 0 0 0
63 1 1 0 2.83204632 13.37794938 3.00000000 0 0 0
64 1 1 0 3.47569320 12.11447638 3.00000000 0 0 0
65 1 1 0 2.70331694 10.92532533 3.00000000 0 0 0
66 1 1 0 3.34696383 9.66185233 3.00000000 0 0 0
67 1 1 0 2.57458756 8.47270128 3.00000000 0 0 0
68 1 1 0 3.21823445 7.20922828 3.00000000 0 0 0
69 1 1 0 2.44585818 6.02007722 3.00000000 0 0 0
70 1 1 0 3.08950507 4.75660422 3.00000000 0 0 0
71 1 1 0 2.31712880 3.56745317 3.00000000 0 0 0
72 1 1 0 2.96077569 2.30398017 3.00000000 0 0 0
73 1 1 0 2.18839943 1.11482912 3.00000000 0 0 0
74 1 1 0 7.08011579 40.20817009 3.00000000 0 0 0
75 1 1 0 6.30773952 39.01901903 3.00000000 0 0 0
76 1 1 0 6.95138641 37.75554603 3.00000000 0 0 0
77 1 1 0 6.17901014 36.56639498 3.00000000 0 0 0
78 1 1 0 6.82265703 35.30292198 3.00000000 0 0 0
79 1 1 0 6.05028076 34.11377092 3.00000000 0 0 0
80 1 1 0 6.69392765 32.85029793 3.00000000 0 0 0
81 1 1 0 5.92155139 31.66114687 3.00000000 0 0 0
82 1 1 0 6.56519828 30.39767387 3.00000000 0 0 0
83 1 1 0 5.79282201 29.20852282 3.00000000 0 0 0
84 1 1 0 6.43646890 27.94504982 3.00000000 0 0 0
85 1 1 0 5.66409263 26.75589876 3.00000000 0 0 0
86 1 1 0 6.30773952 25.49242577 3.00000000 0 0 0
87 1 1 0 5.53536325 24.30327471 3.00000000 0 0 0
88 1 1 0 6.17901014 23.03980171 3.00000000 0 0 0
89 1 1 0 5.40663387 21.85065066 3.00000000 0 0 0
90 1 1 0 6.05028076 20.58717766 3.00000000 0 0 0
91 1 1 0 5.27790450 19.39802660 3.00000000 0 0 0
92 1 1 0 5.92155139 18.13455361 3.00000000 0 0 0
93 1 1 0 5.14917512 16.94540255 3.00000000 0 0 0
94 1 1 0 5.79282201 15.68192955 3.00000000 0 0 0
95 1 1 0 5.02044574 14.49277850 3.00000000 0 0 0
96 1 1 0 5.66409263 13.22930550 3.00000000 0 0 0
97 1 1 0 4.89171636 12.04015444 3.00000000 0 0 0
98 1 1 0 5.53536325 10.77668145 3.00000000 0 0 0
99 1 1 0 4.76298698 9.58753039 3.00000000 0 0 0
100 1 1 0 5.40663387 8.32405739 3.00000000 0 0 0
101 1 1 0 4.63425761 7.13490634 3.00000000 0 0 0
102 1 1 0 5.27790450 5.87143334 3.00000000 0 0 0
103 1 1 0 4.50552823 4.68228228 3.00000000 0 0 0
104 1 1 0 5.14917512 3.41880929 3.00000000 0 0 0
105 1 1 0 4.37679885 2.22965823 3.00000000 0 0 0
106 1 1 0 5.02044574 0.96618523 3.00000000 0 0 0
107 1 1 0 8.49613895 40.13384815 3.00000000 0 0 0
108 1 1 0 9.13978584 38.87037515 3.00000000 0 0 0
109 1 1 0 8.36740957 37.68122409 3.00000000 0 0 0
110 1 1 0 9.01105646 36.41775110 3.00000000 0 0 0
111 1 1 0 8.23868019 35.22860004 3.00000000 0 0 0
112 1 1 0 8.88232708 33.96512704 3.00000000 0 0 0
113 1 1 0 8.10995081 32.77597599 3.00000000 0 0 0
114 1 1 0 8.75359770 31.51250299 3.00000000 0 0 0
115 1 1 0 7.98122143 30.32335193 3.00000000 0 0 0
116 1 1 0 8.62486832 29.05987894 3.00000000 0 0 0
117 1 1 0 7.85249206 27.87072788 3.00000000 0 0 0
118 1 1 0 8.49613895 26.60725488 3.00000000 0 0 0
119 1 1 0 7.72376268 25.41810383 3.00000000 0 0 0
120 1 1 0 8.36740957 24.15463083 3.00000000 0 0 0
121 1 1 0 7.59503330 22.96547977 3.00000000 0 0 0
122 1 1 0 8.23868019 21.70200678 3.00000000 0 0 0
123 1 1 0 7.46630392 20.51285572 3.00000000 0 0 0
124 1 1 0 8.10995081 19.24938272 3.00000000 0 0 0
125 1 1 0 7.33757454 18.06023167 3.00000000 0 0 0
126 1 1 0 7.98122143 16.79675867 3.00000000 0 0 0
127 1 1 0 7.20884517 15.60760761 3.00000000 0 0 0
128 1 1 0 7.85249206 14.34413462 3.00000000 0 0 0
129 1 1 0 7.08011579 13.15498356 3.00000000 0 0 0
130 1 1 0 7.72376268 11.89151056 3.00000000 0 0 0
131 1 1 0 6.95138641 10.70235951 3.00000000 0 0 0
132 1 1 0 7.59503330 9.43888651 3.00000000 0 0 0
133 1 1 0 6.82265703 8.24973545 3.00000000 0 0 0
134 1 1 0 7.46630392 6.98626245 3.00000000 0 0 0
135 1 1 0 6.69392765 5.79711140 3.00000000 0 0 0
136 1 1 0 7.33757454 4.53363840 3.00000000 0 0 0
137 1 1 0 6.56519828 3.34448735 3.00000000 0 0 0
138 1 1 0 7.20884517 2.08101435 3.00000000 0 0 0
139 1 1 0 6.43646890 0.89186329 3.00000000 0 0 0
140 1 1 0 11.32818526 39.98520426 3.00000000 0 0 0
141 1 1 0 10.55580899 38.79605321 3.00000000 0 0 0
142 1 1 0 11.19945588 37.53258021 3.00000000 0 0 0
143 1 1 0 10.42707961 36.34342915 3.00000000 0 0 0
144 1 1 0 11.07072650 35.07995616 3.00000000 0 0 0
145 1 1 0 10.29835024 33.89080510 3.00000000 0 0 0
146 1 1 0 10.94199713 32.62733210 3.00000000 0 0 0
147 1 1 0 10.16962086 31.43818105 3.00000000 0 0 0
148 1 1 0 10.81326775 30.17470805 3.00000000 0 0 0
149 1 1 0 10.04089148 28.98555699 3.00000000 0 0 0
150 1 1 0 10.68453837 27.72208400 3.00000000 0 0 0
151 1 1 0 9.91216210 26.53293294 3.00000000 0 0 0
152 1 1 0 10.55580899 25.26945994 3.00000000 0 0 0
153 1 1 0 9.78343272 24.08030889 3.00000000 0 0 0
154 1 1 0 10.42707961 22.81683589 3.00000000 0 0 0
155 1 1 0 9.65470335 21.62768483 3.00000000 0 0 0
156 1 1 0 10.29835024 20.36421184 3.00000000 0 0 0
157 1 1 0 9.52597397 19.17506078 3.00000000 0 0 0
158 1 1 0 10.16962086 17.91158778 3.00000000 0 0 0
159 1 1 0 9.39724459 16.72243673 3.00000000 0 0 0
160 1 1 0 10.04089148 15.45896373 3.00000000 0 0 0
161 1 1 0 9.26851521 14.26981267 3.00000000 0 0 0
162 1 1 0 9.91216210 13.00633968 3.00000000 0 0 0
163 1 1 0 9.13978583 11.81718862 3.00000000 0 0 0
164 1 1 0 9.78343272 10.55371562 3.00000000 0 0 0
165 1 1 0 9.01105646 9.36456457 3.00000000 0 0 0
166 1 1 0 9.65470335 8.10109157 3.00000000 0 0 0
167 1 1 0 8.88232708 6.91194051 3.00000000 0 0 0
168 1 1 0 9.52597397 5.64846752 3.00000000 0 0 0
169 1 1 0 8.75359770 4.45931646 3.00000000 0 0 0
170 1 1 0 9.39724459 3.19584346 3.00000000 0 0 0
171 1 1 0 8.62486832 2.00669241 3.00000000 0 0 0
172 1 1 0 9.26851521 0.74321941 3.00000000 0 0 0
173 1 1 0 12.74420842 39.91088232 3.00000000 0 0 0
174 1 1 0 13.38785531 38.64740933 3.00000000 0 0 0
175 1 1 0 12.61547904 37.45825827 3.00000000 0 0 0
176 1 1 0 13.25912593 36.19478527 3.00000000 0 0 0
177 1 1 0 12.48674966 35.00563422 3.00000000 0 0 0
178 1 1 0 13.13039655 33.74216122 3.00000000 0 0 0
179 1 1 0 12.35802028 32.55301016 3.00000000 0 0 0
180 1 1 0 13.00166717 31.28953717 3.00000000 0 0 0
181 1 1 0 12.22929091 30.10038611 3.00000000 0 0 0
182 1 1 0 12.87293780 28.83691311 3.00000000 0 0 0
183 1 1 0 12.10056153 27.64776206 3.00000000 0 0 0
184 1 1 0 12.74420842 26.38428906 3.00000000 0 0 0
185 1 1 0 11.97183215 25.19513800 3.00000000 0 0 0
186 1 1 0 12.61547904 23.93166501 3.00000000 0 0 0
187 1 1 0 11.84310277 22.74251395 3.00000000 0 0 0
188 1 1 0 12.48674966 21.47904095 3.00000000 0 0 0
189 1 1 0 11.71437339 20.28988990 3.00000000 0 0 0
190 1 1 0 12.35802028 19.02641690 3.00000000 0 0 0
191 1 1 0 11.58564402 17.83726584 3.00000000 0 0 0
192 1 1 0 12.22929091 16.57379285 3.00000000 0 0 0
193 1 1 0 11.45691464 15.38464179 3.00000000 0 0 0
194 1 1 0 12.10056153 14.12116879 3.00000000 0 0 0
195 1 1 0 11.32818526 12.93201774 3.00000000 0 0 0
196 1 1 0 11.97183215 11.66854474 3.00000000 0 0 0
197 1 1 0 11.19945588 10.47939368 3.00000000 0 0 0
198 1 1 0 11.84310277 9.21592069 3.00000000 0 0 0
199 1 1 0 11.07072650 8.02676963 3.00000000 0 0 0
200 1 1 0 11.71437339 6.76329663 3.00000000 0 0 0
201 1 1 0 10.94199713 5.57414558 3.00000000 0 0 0
202 1 1 0 11.58564402 4.31067258 3.00000000 0 0 0
203 1 1 0 10.81326775 3.12152152 3.00000000 0 0 0
204 1 1 0 11.45691464 1.85804853 3.00000000 0 0 0
205 1 1 0 10.68453837 0.66889747 3.00000000 0 0 0
206 1 1 0 15.57625473 39.76223844 3.00000000 0 0 0
207 1 1 0 14.80387846 38.57308738 3.00000000 0 0 0
208 1 1 0 15.44752535 37.30961439 3.00000000 0 0 0
209 1 1 0 14.67514909 36.12046333 3.00000000 0 0 0
210 1 1 0 15.31879598 34.85699033 3.00000000 0 0 0
211 1 1 0 14.54641971 33.66783928 3.00000000 0 0 0
212 1 1 0 15.19006660 32.40436628 3.00000000 0 0 0
213 1 1 0 14.41769033 31.21521522 3.00000000 0 0 0
214 1 1 0 15.06133722 29.95174223 3.00000000 0 0 0
215 1 1 0 14.28896095 28.76259117 3.00000000 0 0 0
216 1 1 0 14.93260784 27.49911817 3.00000000 0 0 0
217 1 1 0 14.16023157 26.30996712 3.00000000 0 0 0
218 1 1 0 14.80387846 25.04649412 3.00000000 0 0 0
219 1 1 0 14.03150220 23.85734306 3.00000000 0 0 0
220 1 1 0 14.67514909 22.59387007 3.00000000 0 0 0
221 1 1 0 13.90277282 21.40471901 3.00000000 0 0 0
222 1 1 0 14.54641971 20.14124601 3.00000000 0 0 0
223 1 1 0 13.77404344 18.95209496 3.00000000 0 0 0
224 1 1 0 14.41769033 17.68862196 3.00000000 0 0 0
225 1 1 0 13.64531406 16.49947090 3.00000000 0 0 0
226 1 1 0 14.28896095 15.23599791 3.00000000 0 0 0
227 1 1 0 13.51658468 14.04684685 3.00000000 0 0 0
228 1 1 0 14.16023157 12.78337385 3.00000000 0 0 0
229 1 1 0 13.38785531 11.59422280 3.00000000 0 0 0
230 1 1 0 14.03150220 10.33074980 3.00000000 0 0 0
231 1 1 0 13.25912593 9.14159874 3.00000000 0 0 0
232 1 1 0 13.90277282 7.87812575 3.00000000 0 0 0
233 1 1 0 13.13039655 6.68897469 3.00000000 0 0 0
234 1 1 0 13.77404344 5.42550169 3.00000000 0 0 0
235 1 1 0 13.00166717 4.23635064 3.00000000 0 0 0
236 1 1 0 13.64531406 2.97287764 3.00000000 0 0 0
237 1 1 0 12.87293779 1.78372658 3.00000000 0 0 0
238 1 1 0 13.51658468 0.52025359 3.00000000 0 0 0
239 1 1 0 16.99227789 39.68791650 3.00000000 0 0 0
240 1 1 0 17.63592478 38.42444350 3.00000000 0 0 0
241 1 1 0 16.86354851 37.23529245 3.00000000 0 0 0
242 1 1 0 17.50719540 35.97181945 3.00000000 0 0 0
243 1 1 0 16.73481913 34.78266839 3.00000000 0 0 0
244 1 1 0 17.37846602 33.51919540 3.00000000 0 0 0
245 1 1 0 16.60608976 32.33004434 3.00000000 0 0 0
246 1 1 0 17.24973665 31.06657134 3.00000000 0 0 0
247 1 1 0 16.47736038 29.87742029 3.00000000 0 0 0
248 1 1 0 17.12100727 28.61394729 3.00000000 0 0 0
249 1 1 0 16.34863100 27.42479623 3.00000000 0 0 0
250 1 1 0 16.99227789 26.16132324 3.00000000 0 0 0
251 1 1 0 16.21990162 24.97217218 3.00000000 0 0 0
252 1 1 0 16.86354851 23.70869918 3.00000000 0 0 0
253 1 1 0 16.09117224 22.51954813 3.00000000 0 0 0
254 1 1 0 16.73481913 21.25607513 3.00000000 0 0 0
255 1 1 0 15.96244287 20.06692407 3.00000000 0 0 0
256 1 1 0 16.60608976 18.80345108 3.00000000 0 0 0
257 1 1 0 15.83371349 17.61430002 3.00000000 0 0 0
258 1 1 0 16.47736038 16.35082702 3.00000000 0 0 0
259 1 1 0 15.70498411 15.16167597 3.00000000 0 0 0
260 1 1 0 16.34863100 13.89820297 3.00000000 0 0 0
261 1 1 0 15.57625473 12.70905191 3.00000000 0 0 0
262 1 1 0 16.21990162 11.44557892 3.00000000 0 0 0
263 1 1 0 15.44752535 10.25642786 3.00000000 0 0 0
264 1 1 0 16.09117224 8.99295486 3.00000000 0 0 0
265 1 1 0 15.31879598 7.80380381 3.00000000 0 0 0
266 1 1 0 15.96244287 6.54033081 3.00000000 0 0 0
267 1 1 0 15.19006660 5.35117975 3.00000000 0 0 0
268 1 1 0 15.83371349 4.08770676 3.00000000 0 0 0
269 1 1 0 15.06133722 2.89855570 3.00000000 0 0 0
270 1 1 0 15.70498411 1.63508270 3.00000000 0 0 0
271 1 1 0 14.93260784 0.44593165 3.00000000 0 0 0
272 1 1 0 19.82432420 39.53927262 3.00000000 0 0 0
273 1 1 0 19.05194794 38.35012156 3.00000000 0 0 0
274 1 1 0 19.69559483 37.08664856 3.00000000 0 0 0
275 1 1 0 18.92321856 35.89749751 3.00000000 0 0 0
276 1 1 0 19.56686545 34.63402451 3.00000000 0 0 0
277 1 1 0 18.79448918 33.44487345 3.00000000 0 0 0
278 1 1 0 19.43813607 32.18140046 3.00000000 0 0 0
279 1 1 0 18.66575980 30.99224940 3.00000000 0 0 0
280 1 1 0 19.30940669 29.72877640 3.00000000 0 0 0
281 1 1 0 18.53703043 28.53962535 3.00000000 0 0 0
282 1 1 0 19.18067731 27.27615235 3.00000000 0 0 0
283 1 1 0 18.40830105 26.08700129 3.00000000 0 0 0
284 1 1 0 19.05194794 24.82352830 3.00000000 0 0 0
285 1 1 0 18.27957167 23.63437724 3.00000000 0 0 0
286 1 1 0 18.92321856 22.37090424 3.00000000 0 0 0
287 1 1 0 18.15084229 21.18175319 3.00000000 0 0 0
288 1 1 0 18.79448918 19.91828019 3.00000000 0 0 0
289 1 1 0 18.02211291 18.72912913 3.00000000 0 0 0
290 1 1 0 18.66575980 17.46565614 3.00000000 0 0 0
291 1 1 0 17.89338354 16.27650508 3.00000000 0 0 0
292 1 1 0 18.53703043 15.01303208 3.00000000 0 0 0
293 1 1 0 17.76465416 13.82388103 3.00000000 0 0 0
294 1 1 0 18.40830105 12.56040803 3.00000000 0 0 0
295 1 1 0 17.63592478 11.37125697 3.00000000 0 0 0
296 1 1 0 18.27957167 10.10778398 3.00000000 0 0 0
297 1 1 0 17.50719540 8.91863292 3.00000000 0 0 0
298 1 1 0 18.15084229 7.65515992 3.00000000 0 0 0
299 1 1 0 17.37846602 6.46600887 3.00000000 0 0 0
300 1 1 0 18.02211291 5.20253587 3.00000000 0 0 0
301 1 1 0 17.24973665 4.01338481 3.00000000 0 0 0
302 1 1 0 17.89338354 2.74991182 3.00000000 0 0 0
303 1 1 0 17.12100727 1.56076076 3.00000000 0 0 0
304 1 1 0 17.76465416 0.29728776 3.00000000 0 0 0
305 1 1 0 21.24034736 39.46495068 3.00000000 0 0 0
306 1 1 0 21.88399425 38.20147768 3.00000000 0 0 0
307 1 1 0 21.11161798 37.01232662 3.00000000 0 0 0
308 1 1 0 21.75526487 35.74885363 3.00000000 0 0 0
309 1 1 0 20.98288861 34.55970257 3.00000000 0 0 0
310 1 1 0 21.62653550 33.29622957 3.00000000 0 0 0
311 1 1 0 20.85415923 32.10707852 3.00000000 0 0 0
312 1 1 0 21.49780612 30.84360552 3.00000000 0 0 0
313 1 1 0 20.72542985 29.65445446 3.00000000 0 0 0
314 1 1 0 21.36907674 28.39098147 3.00000000 0 0 0
315 1 1 0 20.59670047 27.20183041 3.00000000 0 0 0
316 1 1 0 21.24034736 25.93835741 3.00000000 0 0 0
317 1 1 0 20.46797109 24.74920636 3.00000000 0 0 0
318 1 1 0 21.11161798 23.48573336 3.00000000 0 0 0
319 1 1 0 20.33924172 22.29658230 3.00000000 0 0 0
320 1 1 0 20.98288861 21.03310931 3.00000000 0 0 0
321 1 1 0 20.21051234 19.84395825 3.00000000 0 0 0
322 1 1 0 20.85415923 18.58048525 3.00000000 0 0 0
323 1 1 0 20.08178296 17.39133420 3.00000000 0 0 0
324 1 1 0 20.72542985 16.12786120 3.00000000 0 0 0
325 1 1 0 19.95305358 14.93871014 3.00000000 0 0 0
326 1 1 0 20.59670047 13.67523715 3.00000000 0 0 0
327 1 1 0 19.82432420 12.48608609 3.00000000 0 0 0
328 1 1 0 20.46797109 11.22261309 3.00000000 0 0 0
329 1 1 0 19.69559483 10.03346204 3.00000000 0 0 0
330 1 1 0 20.33924172 8.76998904 3.00000000 0 0 0
331 1 1 0 19.56686545 7.58083798 3.00000000 0 0 0
332 1 1 0 20.21051234 6.31736499 3.00000000 0 0 0
333 1 1 0 19.43813607 5.12821393 3.00000000 0 0 0
334 1 1 0 20.08178296 3.86474093 3.00000000 0 0 0
335 1 1 0 19.30940669 2.67558988 3.00000000 0 0 0
336 1 1 0 19.95305358 1.41211688 3.00000000 0 0 0
337 1 1 0 19.18067731 0.22296582 3.00000000 0 0 0
338 1 1 0 23.30001741 38.12715574 3.00000000 0 0 0
339 1 1 0 23.17128803 35.67453169 3.00000000 0 0 0
340 1 1 0 23.04255865 33.22190763 3.00000000 0 0 0
341 1 1 0 22.91382928 30.76928358 3.00000000 0 0 0
342 1 1 0 22.78509990 28.31665953 3.00000000 0 0 0
343 1 1 0 22.65637052 25.86403547 3.00000000 0 0 0
344 1 1 0 23.30001741 24.60056247 3.00000000 0 0 0
345 1 1 0 22.52764114 23.41141142 3.00000000 0 0 0
346 1 1 0 23.17128803 22.14793842 3.00000000 0 0 0
347 1 1 0 22.39891176 20.95878736 3.00000000 0 0 0
348 1 1 0 23.04255865 19.69531437 3.00000000 0 0 0
349 1 1 0 22.27018239 18.50616331 3.00000000 0 0 0
350 1 1 0 22.91382928 17.24269031 3.00000000 0 0 0
351 1 1 0 22.14145301 16.05353926 3.00000000 0 0 0
352 1 1 0 22.78509990 14.79006626 3.00000000 0 0 0
353 1 1 0 22.01272363 13.60091520 3.00000000 0 0 0
354 1 1 0 22.65637052 12.33744221 3.00000000 0 0 0
355 1 1 0 21.88399425 11.14829115 3.00000000 0 0 0
356 1 1 0 22.52764114 9.88481815 3.00000000 0 0 0
357 1 1 0 21.75526487 8.69566710 3.00000000 0 0 0
358 1 1 0 22.39891176 7.43219410 3.00000000 0 0 0
359 1 1 0 21.62653550 6.24304304 3.00000000 0 0 0
360 1 1 0 22.27018239 4.97957005 3.00000000 0 0 0
361 1 1 0 21.49780612 3.79041899 3.00000000 0 0 0
362 1 1 0 22.14145301 2.52694599 3.00000000 0 0 0
363 1 1 0 21.36907674 1.33779494 3.00000000 0 0 0
364 1 1 0 22.01272363 0.07432194 3.00000000 0 0 0
365 2 2 0 -0.00000000 13.52659326 6.40000000 0 0 0
366 2 2 0 0.12872938 11.07396921 6.40000000 0 0 0
367 2 2 0 0.25745876 8.62134516 6.40000000 0 0 0
368 2 2 0 0.38618813 6.16872110 6.40000000 0 0 0
369 2 2 0 0.51491751 3.71609705 6.40000000 0 0 0
370 2 2 0 0.64364689 1.26347300 6.40000000 0 0 0
371 2 2 0 0.00000000 0.00000000 6.40000000 0 0 0
372 2 2 0 0.77237627 39.39062874 6.40000000 0 0 0
373 2 2 0 0.12872938 38.12715574 6.40000000 0 0 0
374 2 2 0 0.90110564 36.93800468 6.40000000 0 0 0
375 2 2 0 0.25745876 35.67453169 6.40000000 0 0 0
376 2 2 0 1.02983502 34.48538063 6.40000000 0 0 0
377 2 2 0 0.38618813 33.22190763 6.40000000 0 0 0
378 2 2 0 1.15856440 32.03275658 6.40000000 0 0 0
379 2 2 0 0.51491751 30.76928358 6.40000000 0 0 0
380 2 2 0 1.28729378 29.58013252 6.40000000 0 0 0
381 2 2 0 0.64364689 28.31665953 6.40000000 0 0 0
382 2 2 0 1.41602316 27.12750847 6.40000000 0 0 0
383 2 2 0 0.77237627 25.86403547 6.40000000 0 0 0
384 2 2 0 1.54475253 24.67488442 6.40000000 0 0 0
385 2 2 0 0.90110565 23.41141142 6.40000000 0 0 0
386 2 2 0 1.67348191 22.22226036 6.40000000 0 0 0
387 2 2 0 1.02983502 20.95878737 6.40000000 0 0 0
388 2 2 0 1.80221129 19.76963631 6.40000000 0 0 0
389 2 2 0 1.15856440 18.50616331 6.40000000 0 0 0
390 2 2 0 1.93094067 17.31701226 6.40000000 0 0 0
391 2 2 0 1.28729378 16.05353926 6.40000000 0 0 0
392 2 2 0 2.05967005 14.86438820 6.40000000 0 0 0
393 2 2 0 1.41602316 13.60091521 6.40000000 0 0 0
394 2 2 0 2.18839942 12.41176415 6.40000000 0 0 0
395 2 2 0 1.54475254 11.14829115 6.40000000 0 0 0
396 2 2 0 2.31712880 9.95914010 6.40000000 0 0 0
397 2 2 0 1.67348191 8.69566710 6.40000000 0 0 0
398 2 2 0 2.44585818 7.50651604 6.40000000 0 0 0
399 2 2 0 1.80221129 6.24304305 6.40000000 0 0 0
400 2 2 0 2.57458756 5.05389199 6.40000000 0 0 0
401 2 2 0 1.93094067 3.79041899 6.40000000 0 0 0
402 2 2 0 2.70331694 2.60126794 6.40000000 0 0 0
403 2 2 0 2.05967005 1.33779494 6.40000000 0 0 0
404 2 2 0 2.83204631 0.14864388 6.40000000 0 0 0
405 2 2 0 2.18839942 39.46495068 6.40000000 0 0 0
406 2 2 0 2.96077569 38.27579962 6.40000000 0 0 0
407 2 2 0 2.31712880 37.01232662 6.40000000 0 0 0
408 2 2 0 3.08950507 35.82317557 6.40000000 0 0 0
409 2 2 0 2.44585818 34.55970257 6.40000000 0 0 0
410 2 2 0 3.21823445 33.37055151 6.40000000 0 0 0
411 2 2 0 2.57458756 32.10707852 6.40000000 0 0 0
412 2 2 0 3.34696383 30.91792746 6.40000000 0 0 0
413 2 2 0 2.70331694 29.65445446 6.40000000 0 0 0
414 2 2 0 3.47569320 28.46530341 6.40000000 0 0 0
415 2 2 0 2.83204631 27.20183041 6.40000000 0 0 0
416 2 2 0 3.60442258 26.01267935 6.40000000 0 0 0
417 2 2 0 2.96077569 24.74920636 6.40000000 0 0 0
418 2 2 0 3.73315196 23.56005530 6.40000000 0 0 0
419 2 2 0 3.08950507 22.29658230 6.40000000 0 0 0
420 2 2 0 3.86188134 21.10743125 6.40000000 0 0 0
421 2 2 0 3.21823445 19.84395825 6.40000000 0 0 0
422 2 2 0 3.99061072 18.65480719 6.40000000 0 0 0
423 2 2 0 3.34696383 17.39133420 6.40000000 0 0 0
424 2 2 0 4.11934009 16.20218314 6.40000000 0 0 0
425 2 2 0 3.47569320 14.93871014 6.40000000 0 0 0
426 2 2 0 4.24806947 13.74955909 6.40000000 0 0 0
427 2 2 0 3.60442258 12.48608609 6.40000000 0 0 0
428 2 2 0 4.37679885 11.29693503 6.40000000 0 0 0
429 2 2 0 3.73315196 10.03346204 6.40000000 0 0 0
430 2 2 0 4.50552823 8.84431098 6.40000000 0 0 0
431 2 2 0 3.86188134 7.58083798 6.40000000 0 0 0
432 2 2 0 4.63425761 6.39168693 6.40000000 0 0 0
433 2 2 0 3.99061072 5.12821393 6.40000000 0 0 0
434 2 2 0 4.76298698 3.93906287 6.40000000 0 0 0
435 2 2 0 4.11934009 2.67558988 6.40000000 0 0 0
436 2 2 0 4.89171636 1.48643882 6.40000000 0 0 0
437 2 2 0 4.24806947 0.22296582 6.40000000 0 0 0
438 2 2 0 5.02044574 39.61359456 6.40000000 0 0 0
439 2 2 0 4.37679885 38.35012156 6.40000000 0 0 0
440 2 2 0 5.14917512 37.16097051 6.40000000 0 0 0
441 2 2 0 4.50552823 35.89749751 6.40000000 0 0 0
442 2 2 0 5.27790450 34.70834645 6.40000000 0 0 0
443 2 2 0 4.63425761 33.44487346 6.40000000 0 0 0
444 2 2 0 5.40663387 32.25572240 6.40000000 0 0 0
445 2 2 0 4.76298698 30.99224940 6.40000000 0 0 0
446 2 2 0 5.53536325 29.80309835 6.40000000 0 0 0
447 2 2 0 4.89171636 28.53962535 6.40000000 0 0 0
448 2 2 0 5.66409263 27.35047429 6.40000000 0 0 0
449 2 2 0 5.02044574 26.08700130 6.40000000 0 0 0
450 2 2 0 5.79282201 24.89785024 6.40000000 0 0 0
451 2 2 0 5.14917512 23.63437724 6.40000000 0 0 0
452 2 2 0 5.92155139 22.44522619 6.40000000 0 0 0
453 2 2 0 5.27790450 21.18175319 6.40000000 0 0 0
454 2 2 0 6.05028076 19.99260213 6.40000000 0 0 0
455 2 2 0 5.40663387 18.72912914 6.40000000 0 0 0
456 2 2 0 6.17901014 17.53997808 6.40000000 0 0 0
457 2 2 0 5.53536325 16.27650508 6.40000000 0 0 0
458 2 2 0 6.30773952 15.08735403 6.40000000 0 0 0
459 2 2 0 5.66409263 13.82388103 6.40000000 0 0 0
460 2 2 0 6.43646890 12.63472997 6.40000000 0 0 0
461 2 2 0 5.79282201 11.37125697 6.40000000 0 0 0
462 2 2 0 6.56519828 10.18210592 6.40000000 0 0 0
463 2 2 0 5.92155139 8.91863292 6.40000000 0 0 0
464 2 2 0 6.69392765 7.72948187 6.40000000 0 0 0
465 2 2 0 6.05028076 6.46600887 6.40000000 0 0 0
466 2 2 0 6.82265703 5.27685781 6.40000000 0 0 0
467 2 2 0 6.17901014 4.01338481 6.40000000 0 0 0
468 2 2 0 6.95138641 2.82423376 6.40000000 0 0 0
469 2 2 0 6.30773952 1.56076076 6.40000000 0 0 0
470 2 2 0 7.08011579 0.37160971 6.40000000 0 0 0
471 2 2 0 6.43646890 39.68791650 6.40000000 0 0 0
472 2 2 0 7.20884516 38.49876544 6.40000000 0 0 0
473 2 2 0 6.56519827 37.23529245 6.40000000 0 0 0
474 2 2 0 7.33757454 36.04614139 6.40000000 0 0 0
475 2 2 0 6.69392765 34.78266839 6.40000000 0 0 0
476 2 2 0 7.46630392 33.59351734 6.40000000 0 0 0
477 2 2 0 6.82265703 32.33004434 6.40000000 0 0 0
478 2 2 0 7.59503330 31.14089328 6.40000000 0 0 0
479 2 2 0 6.95138641 29.87742029 6.40000000 0 0 0
480 2 2 0 7.72376268 28.68826923 6.40000000 0 0 0
481 2 2 0 7.08011579 27.42479623 6.40000000 0 0 0
482 2 2 0 7.85249205 26.23564518 6.40000000 0 0 0
483 2 2 0 7.20884516 24.97217218 6.40000000 0 0 0
484 2 2 0 7.98122143 23.78302112 6.40000000 0 0 0
485 2 2 0 7.33757454 22.51954813 6.40000000 0 0 0
486 2 2 0 8.10995081 21.33039707 6.40000000 0 0 0
487 2 2 0 7.46630392 20.06692407 6.40000000 0 0 0
488 2 2 0 8.23868019 18.87777302 6.40000000 0 0 0
489 2 2 0 7.59503330 17.61430002 6.40000000 0 0 0
490 2 2 0 8.36740957 16.42514896 6.40000000 0 0 0
491 2 2 0 7.72376268 15.16167597 6.40000000 0 0 0
492 2 2 0 8.49613894 13.97252491 6.40000000 0 0 0
493 2 2 0 7.85249205 12.70905191 6.40000000 0 0 0
494 2 2 0 8.62486832 11.51990086 6.40000000 0 0 0
495 2 2 0 7.98122143 10.25642786 6.40000000 0 0 0
496 2 2 0 8.75359770 9.06727680 6.40000000 0 0 0
497 2 2 0 8.10995081 7.80380381 6.40000000 0 0 0
498 2 2 0 8.88232708 6.61465275 6.40000000 0 0 0
499 2 2 0 8.23868019 5.35117975 6.40000000 0 0 0
500 2 2 0 9.01105646 4.16202870 6.40000000 0 0 0
501 2 2 0 8.36740957 2.89855570 6.40000000 0 0 0
502 2 2 0 9.13978583 1.70940464 6.40000000 0 0 0
503 2 2 0 8.49613894 0.44593165 6.40000000 0 0 0
504 2 2 0 9.26851521 39.83656038 6.40000000 0 0 0
505 2 2 0 8.62486832 38.57308739 6.40000000 0 0 0
506 2 2 0 9.39724459 37.38393633 6.40000000 0 0 0
507 2 2 0 8.75359770 36.12046333 6.40000000 0 0 0
508 2 2 0 9.52597397 34.93131228 6.40000000 0 0 0
509 2 2 0 8.88232708 33.66783928 6.40000000 0 0 0
510 2 2 0 9.65470335 32.47868822 6.40000000 0 0 0
511 2 2 0 9.01105646 31.21521523 6.40000000 0 0 0
512 2 2 0 9.78343272 30.02606417 6.40000000 0 0 0
513 2 2 0 9.13978583 28.76259117 6.40000000 0 0 0
514 2 2 0 9.91216210 27.57344012 6.40000000 0 0 0
515 2 2 0 9.26851521 26.30996712 6.40000000 0 0 0
516 2 2 0 10.04089148 25.12081606 6.40000000 0 0 0
517 2 2 0 9.39724459 23.85734306 6.40000000 0 0 0
518 2 2 0 10.16962086 22.66819201 6.40000000 0 0 0
519 2 2 0 9.52597397 21.40471901 6.40000000 0 0 0
520 2 2 0 10.29835024 20.21556796 6.40000000 0 0 0
521 2 2 0 9.65470335 18.95209496 6.40000000 0 0 0
522 2 2 0 10.42707961 17.76294390 6.40000000 0 0 0
523 2 2 0 9.78343272 16.49947090 6.40000000 0 0 0
524 2 2 0 10.55580899 15.31031985 6.40000000 0 0 0
525 2 2 0 9.91216210 14.04684685 6.40000000 0 0 0
526 2 2 0 10.68453837 12.85769580 6.40000000 0 0 0
527 2 2 0 10.04089148 11.59422280 6.40000000 0 0 0
528 2 2 0 10.81326775 10.40507174 6.40000000 0 0 0
529 2 2 0 10.16962086 9.14159874 6.40000000 0 0 0
530 2 2 0 10.94199713 7.95244769 6.40000000 0 0 0
531 2 2 0 10.29835024 6.68897469 6.40000000 0 0 0
532 2 2 0 11.07072650 5.49982364 6.40000000 0 0 0
533 2 2 0 10.42707961 4.23635064 6.40000000 0 0 0
534 2 2 0 11.19945588 3.04719958 6.40000000 0 0 0
535 2 2 0 10.55580899 1.78372658 6.40000000 0 0 0
536 2 2 0 11.32818526 0.59457553 6.40000000 0 0 0
537 2 2 0 10.68453837 39.91088232 6.40000000 0 0 0
538 2 2 0 11.45691464 38.72173127 6.40000000 0 0 0
539 2 2 0 10.81326775 37.45825827 6.40000000 0 0 0
540 2 2 0 11.58564401 36.26910721 6.40000000 0 0 0
541 2 2 0 10.94199713 35.00563422 6.40000000 0 0 0
542 2 2 0 11.71437339 33.81648316 6.40000000 0 0 0
543 2 2 0 11.07072650 32.55301016 6.40000000 0 0 0
544 2 2 0 11.84310277 31.36385911 6.40000000 0 0 0
545 2 2 0 11.19945588 30.10038611 6.40000000 0 0 0
546 2 2 0 11.97183215 28.91123505 6.40000000 0 0 0
547 2 2 0 11.32818526 27.64776206 6.40000000 0 0 0
548 2 2 0 12.10056153 26.45861100 6.40000000 0 0 0
549 2 2 0 11.45691464 25.19513800 6.40000000 0 0 0
550 2 2 0 12.22929090 24.00598695 6.40000000 0 0 0
551 2 2 0 11.58564402 22.74251395 6.40000000 0 0 0
552 2 2 0 12.35802028 21.55336289 6.40000000 0 0 0
553 2 2 0 11.71437339 20.28988990 6.40000000 0 0 0
554 2 2 0 12.48674966 19.10073884 6.40000000 0 0 0
555 2 2 0 11.84310277 17.83726584 6.40000000 0 0 0
556 2 2 0 12.61547904 16.64811479 6.40000000 0 0 0
557 2 2 0 11.97183215 15.38464179 6.40000000 0 0 0
558 2 2 0 12.74420842 14.19549073 6.40000000 0 0 0
559 2 2 0 12.10056153 12.93201774 6.40000000 0 0 0
560 2 2 0 12.87293779 11.74286668 6.40000000 0 0 0
561 2 2 0 12.22929090 10.47939368 6.40000000 0 0 0
562 2 2 0 13.00166717 9.29024263 6.40000000 0 0 0
563 2 2 0 12.35802028 8.02676963 6.40000000 0 0 0
564 2 2 0 13.13039655 6.83761857 6.40000000 0 0 0
565 2 2 0 12.48674966 5.57414558 6.40000000 0 0 0
566 2 2 0 13.25912593 4.38499452 6.40000000 0 0 0
567 2 2 0 12.61547904 3.12152152 6.40000000 0 0 0
568 2 2 0 13.38785531 1.93237047 6.40000000 0 0 0
569 2 2 0 12.74420842 0.66889747 6.40000000 0 0 0
570 2 2 0 13.51658468 40.05952621 6.40000000 0 0 0
571 2 2 0 12.87293779 38.79605321 6.40000000 0 0 0
572 2 2 0 13.64531406 37.60690215 6.40000000 0 0 0
573 2 2 0 13.00166717 36.34342915 6.40000000 0 0 0
574 2 2 0 13.77404344 35.15427810 6.40000000 0 0 0
575 2 2 0 13.13039655 33.89080510 6.40000000 0 0 0
576 2 2 0 13.90277282 32.70165405 6.40000000 0 0 0
577 2 2 0 13.25912593 31.43818105 6.40000000 0 0 0
578 2 2 0 14.03150220 30.24902999 6.40000000 0 0 0
579 2 2 0 13.38785531 28.98555699 6.40000000 0 0 0
580 2 2 0 14.16023157 27.79640594 6.40000000 0 0 0
581 2 2 0 13.51658468 26.53293294 6.40000000 0 0 0
582 2 2 0 14.28896095 25.34378189 6.40000000 0 0 0
583 2 2 0 13.64531406 24.08030889 6.40000000 0 0 0
584 2 2 0 14.41769033 22.89115783 6.40000000 0 0 0
585 2 2 0 13.77404344 21.62768483 6.40000000 0 0 0
586 2 2 0 14.54641971 20.43853378 6.40000000 0 0 0
587 2 2 0 13.90277282 19.17506078 6.40000000 0 0 0
588 2 2 0 14.67514909 17.98590973 6.40000000 0 0 0
589 2 2 0 14.03150220 16.72243673 6.40000000 0 0 0
590 2 2 0 14.80387846 15.53328567 6.40000000 0 0 0
591 2 2 0 14.16023157 14.26981267 6.40000000 0 0 0
592 2 2 0 14.93260784 13.08066162 6.40000000 0 0 0
593 2 2 0 14.28896095 11.81718862 6.40000000 0 0 0
594 2 2 0 15.06133722 10.62803756 6.40000000 0 0 0
595 2 2 0 14.41769033 9.36456457 6.40000000 0 0 0
596 2 2 0 15.19006660 8.17541351 6.40000000 0 0 0