ITEM: TIMESTEP
71
ITEM: NUMBER OF ATOMS
3176
ITEM: BOX BOUNDS pp pp pp
0.0000000000000000e+00 4.8935453299999999e+01
0.0000000000000000e+00 8.4758691400000004e+01
0.0000000000000000e+00 1.5000000000000000e+01
ITEM: ATOMS id type x y z c_csym c_2[1] c_2[2] c_2[3] c_2[4] c_2[5] c_2[6] c_3 
74 1 0.269894 9.81948 2.92918 6.01826 -135154 -155056 16825.6 -20716.2 20551 -1691.82 -7.41798 
75 1 0.945944 8.57301 2.92506 6.02225 -166367 -132763 -9721.62 -24572.8 5701.68 -2960.93 -7.41559 
76 1 0.204887 7.36437 2.92066 6.01803 -138265 -155587 10637.5 -23663 24375.9 -3502.75 -7.41717 
77 1 0.880443 6.11764 2.91552 6.0171 -167407 -134345 -3686.6 -22702.6 14378.2 -3202.32 -7.4157 
78 1 0.138576 4.90948 2.90974 6.01889 -142021 -155747 3810.66 -17494 26864.9 -3182.49 -7.41625 
79 1 0.813172 3.66228 2.90433 6.01567 -162571 -137988 -1915.44 -12236.4 18113.8 -4701.39 -7.41559 
80 1 0.070144 2.45476 2.89914 6.02333 -145269 -153852 -2024.68 -5865.07 18233.3 -1275.11 -7.41553 
81 1 0.743812 1.20712 2.89617 6.02403 -153957 -145254 -3611.07 -2321.56 8684.33 -5846.44 -7.41535 
82 1 1.41506e-05 3.60941e-06 2.89459 6.03019 -149395 -149430 -4295.64 -49.0897 0.442595 0.88836 -7.41528 
144 1 3.10346 9.74278 2.92947 6.02087 -179775 -114464 -8820.88 -24625.9 1195.46 -8707.19 -7.4159 
145 1 2.36329 8.53357 2.92578 6.01535 -155763 -136710 10521.3 -20192.8 20110.6 663.77 -7.41735 
146 1 3.03846 7.2865 2.9223 6.0196 -181711 -116763 -1857.36 -24171.5 6146.41 -10957.3 -7.41609 
147 1 2.29774 6.07762 2.91693 6.01412 -158447 -138506 4654.71 -15549.1 24341.7 -5116.43 -7.41655 
148 1 2.97225 4.83025 2.91321 6.01692 -177769 -121461 1798.91 -15304.9 13309.7 -15613.3 -7.4161 
149 1 2.23044 3.62197 2.90662 6.01481 -157507 -142479 -450.305 -3182.9 22004.3 -10062.4 -7.41581 
150 1 2.90418 2.3743 2.90435 6.01915 -165864 -133143 661.771 -2709.52 12454.2 -19901.8 -7.41584 
151 1 2.16109 1.16672 2.89914 6.01883 -152324 -147479 -2926.41 7445.49 8018.87 -13547 -7.41544 
213 1 4.52075 9.70381 2.93037 6.01296 -168563 -122312 5405.99 -18500.4 15260.1 5843.69 -7.41712 
214 1 5.19571 8.45654 2.92826 6.01521 -186598 -106264 2487.92 -25077 264.799 -15019.9 -7.41674 
215 1 4.4557 7.24721 2.92429 6.01352 -169765 -126118 756.782 -12233.5 15852.3 -597.875 -7.41648 
216 1 5.13028 5.99979 2.92237 6.01557 -183798 -111036 7274.93 -15761 5903.44 -18636 -7.41689 
217 1 4.38946 4.79087 2.91686 6.01353 -168848 -131490 -2439.24 1478.54 16760.9 -8406.03 -7.41591 
218 1 5.06346 3.54327 2.91561 6.01765 -174647 -121353 7220.62 -882.043 10466.6 -23819.5 -7.41669 
219 1 4.32141 2.335 2.90968 6.01485 -161482 -140211 -2625.24 16973 9793.81 -15761.4 -7.41564 
220 1 4.99513 1.0874 2.91066 6.01604 -158361 -140030 2822.99 10259.3 7342.33 -25896 -7.4162 
282 1 7.35254 9.62732 2.93373 6.01184 -188049 -100644 8119.65 -28778.6 501.685 -20893.9 -7.41744 
283 1 6.61296 8.41773 2.93025 6.01486 -172744 -119429 -6570.78 -12133.6 9155.79 2079.14 -7.41619 
284 1 7.28785 7.17044 2.92965 6.01453 -181061 -109384 13118.1 -18184.1 2293.63 -19488.9 -7.41767 
285 1 6.5475 5.96123 2.9256 6.01694 -170890 -126736 -8567.11 2585.88 8157.57 -2888.98 -7.41576 
286 1 7.22202 4.71386 2.92526 6.01704 -174073 -117471 13804.2 -1993.74 7358.24 -20532.7 -7.41759 
287 1 6.48068 3.50512 2.92051 6.01875 -166272 -134764 -6848.79 21322.7 5339.75 -9201.13 -7.41563 
288 1 7.15485 2.25773 2.92111 6.01625 -163224 -131038 9110.25 14120.5 9435.83 -21840.3 -7.41706 
289 1 6.41239 1.04956 2.91686 6.01819 -155599 -144853 -1247.51 34504.2 -2925.24 -15221.6 -7.41594 
351 1 8.7698 9.58877 2.93657 6.01218 -173954 -113141 -14875.1 -14214.6 8663.86 -2270.66 -7.41598 
352 1 9.44516 8.34169 2.93675 6.0145 -179432 -110429 19158.9 -21616.9 4821.73 -25350.1 -7.41839 
353 1 8.70512 7.13231 2.93268 6.01891 -165617 -125944 -16371.5 494.208 3593.46 -2697.77 -7.41558 
354 1 9.38031 5.88528 2.93295 6.01775 -169380 -120616 19646.2 -5607.31 8273.18 -19915.3 -7.41832 
355 1 8.63928 4.67638 2.92891 6.02241 -161648 -134342 -14033.4 19407.9 500.416 -4118.32 -7.41547 
356 1 9.31411 3.4293 2.92929 6.01705 -161095 -129389 15051.1 12647.2 11533.4 -16358.4 -7.41785 
357 1 8.57211 2.22084 2.92561 6.02252 -156706 -141049 -7087.4 37033.9 -4483.6 -7016.6 -7.41582 
358 1 9.24675 0.973795 2.92677 6.01371 -152206 -140751 5852 25262.3 10514.8 -13410.1 -7.417 
1597 2 0.471333 8.61137 6.47474 6.01704 -130033 -161755 13805.1 23488.9 21460.6 3894.36 -7.41759 
1598 2 0.536847 6.15671 6.48439 6.01769 -133922 -162109 7222.06 22604.5 25861.3 2845.56 -7.41669 
1599 2 0.60414 3.70223 6.49565 6.01918 -138783 -159915 661.619 12820.3 23462.1 -834.835 -7.41584 
1600 2 0.673503 1.2477 6.50383 6.024 -145372 -153661 -3610.19 2639.63 9406.47 -4596.35 -7.41535 
1601 2 1.05692e-05 -4.90737e-06 6.50541 6.03019 -149453 -149496 -4296.21 51.0983 0.559109 0.925521 -7.41528 
1662 2 2.56587 9.89667 6.47035 6.01454 -111532 -179037 13118.1 21938.4 18024.7 7758.68 -7.41767 
1663 2 1.88884 8.6509 6.4744 6.0169 -140137 -157563 -8567.15 20365.9 6580.19 -5620.07 -7.41576 
1664 2 2.63085 7.44283 6.47763 6.01559 -115395 -179173 7275.76 23556.7 19091.1 4205.85 -7.41689 
1665 2 1.9543 6.1968 6.48314 6.01354 -142116 -158175 -2439.68 16925.2 15660.2 -10312.2 -7.41591 
1666 2 2.69702 4.98916 6.48679 6.01691 -122374 -176925 1797.66 16674.6 20176.4 -3720.06 -7.4161 
1667 2 2.02153 3.74259 6.49338 6.01494 -143385 -156501 -450.097 4975.41 19716 -14025.4 -7.4158 
1668 2 2.76506 2.53535 6.49567 6.0157 -133638 -167079 -1915.22 4559.09 13129 -13336.1 -7.41559 
1669 2 2.09082 1.28812 6.50086 6.02327 -146591 -152495 -2024.18 -6639.72 10221.5 -15152.9 -7.41553 
1670 2 2.83461 0.0809517 6.49947 6.01861 -149190 -150355 -2100.92 -2394.09 -974.734 -19678.8 -7.41554 
1731 2 3.9835 9.93584 6.46975 6.01488 -122204 -169916 -6571.62 16978.8 2777.43 -8968.39 -7.41619 
1732 2 4.72574 8.72787 6.47174 6.01524 -104542 -188156 2488.78 22247.4 13140.2 7280.54 -7.41674 
1733 2 4.04843 7.48234 6.47571 6.01352 -126242 -169348 754.78 12774 8443.95 -13429.5 -7.41648 
1734 2 4.79109 6.27462 6.4777 6.01963 -112045 -186420 -1857.86 15926.7 12563.5 155.957 -7.41609 
1735 2 4.11453 5.0287 6.48307 6.01418 -130189 -167016 4653.45 835.583 16602.7 -18521.8 -7.41655 
1736 2 4.85783 3.82129 6.48448 6.0171 -122986 -178870 -3686.34 3001.75 9963.2 -10850.7 -7.4157 
1737 2 4.18246 2.57474 6.49026 6.01894 -137258 -160660 3810.02 -14681.1 16189.1 -21674.4 -7.41625 
1738 2 4.92612 1.36743 6.48938 6.01367 -139175 -161942 -1947.3 -9008.73 1901.99 -21188.1 -7.41576 
1739 2 4.25191 0.120216 6.49338 6.01626 -148918 -150757 190.361 -22923 4466.46 -20737.2 -7.41581 
1800 2 6.82121 10.0122 6.46636 6.01352 -97874.6 -190923 -4793.69 24580.7 12978.2 6287.96 -7.41647 
1801 2 6.14338 8.76697 6.46963 6.01296 -117791 -172942 5405.26 10808.2 2569.11 -16137.5 -7.41712 
1802 2 6.88579 7.55905 6.47053 6.02088 -109466 -184767 -8820.43 15950.9 8138.91 3318.42 -7.4159 
1803 2 6.20866 6.31344 6.47422 6.01537 -123988 -168536 10520.8 -1876.22 9481.08 -17748 -7.41735 
1804 2 6.95149 5.1057 6.47494 6.02226 -119973 -179229 -9721.02 2307.65 5415.45 -3457.82 -7.41559 
1805 2 6.27531 3.85961 6.47934 6.01804 -130760 -163145 10638.4 -19271.1 15221.2 -19358.8 -7.41717 
1806 2 7.01858 2.65202 6.47903 6.01606 -132516 -167871 -6234.97 -12884.3 794.595 -12450.9 -7.41573 
1807 2 6.34349 1.40533 6.48308 6.01663 -141784 -154938 5801.75 -33339.1 12421.1 -18911.1 -7.41658 
1808 2 7.0867 0.197612 6.48072 6.01288 -148106 -149937 1066.55 -20475.2 -5650.79 -19538.4 -7.41631 
1869 2 8.2389 10.0511 6.46313 6.00763 -112224 -177482 10821.1 12629.8 2342.53 -24101.1 -7.41779 
1870 2 8.98092 8.84293 6.46348 6.01907 -107304 -181013 -16538.9 18879.9 9894.5 28.3617 -7.41577 
1871 2 8.30337 7.59752 6.46701 6.0142 -124681 -165551 16018.6 -1482.11 5359.6 -20341.1 -7.41804 
1872 2 9.04559 6.38937 6.46736 6.02369 -121209 -171433 -17300.7 4238.68 5128.3 -1010.9 -7.41546 
1873 2 8.36899 5.14346 6.47082 6.01825 -132262 -158212 16825.2 -19052.3 11740.9 -16951.4 -7.41798 
1874 2 9.11165 3.93546 6.47097 6.01947 -131856 -163569 -13489.2 -12519 552.297 -4537.04 -7.41555 
1875 2 8.43598 2.68905 6.47423 6.01509 -139338 -152521 11947.7 -36078.8 14724.9 -13901.1 -7.41743 
1876 2 9.17893 1.48111 6.47333 6.01514 -142130 -153121 -4970.96 -25023.5 -5332.64 -9355.75 -7.41611 
1877 2 8.50402 0.234296 6.47571 6.01649 -148412 -147093 2796.83 -43881 11154.9 -10589.3 -7.41657 
420 1 11.6018 9.51385 2.9465 6.01182 -186492 -106356 27123.5 -21850.8 9676.45 -35964.9 -7.41929 
421 1 10.8625 8.30402 2.94089 6.01556 -163209 -122331 -24379.3 389.479 5121.45 -9346.35 -7.41556 
422 1 11.5383 7.0573 2.94156 6.01671 -170169 -122682 26022.7 -6709.26 13130.9 -26948 -7.41905 
423 1 10.7976 5.84819 2.93658 6.0222 -154302 -134905 -21687.9 17254.4 202.456 -7057.89 -7.41542 
424 1 11.4732 4.60147 2.93692 6.01466 -159101 -132085 20681.8 11141.9 16516.3 -18448.8 -7.41852 
425 1 10.7314 3.39286 2.93271 6.02251 -150806 -141076 -14657.7 35219.9 -4701.53 -5577.22 -7.41566 
426 1 11.4065 2.14605 2.93316 6.01154 -151725 -138149 11019.3 27112.6 16116.1 -12183.2 -7.41766 
427 1 10.6641 0.937768 2.93028 6.01643 -148852 -143080 -3840.58 47468.4 -10797.4 -6178.85 -7.41634 
489 1 13.0191 9.47722 2.95231 6.00759 -170340 -112843 -34038.6 5461.96 8978.23 -16088.8 -7.41559 
490 1 13.6954 8.23071 2.95329 6.01346 -180418 -117235 35834.6 -1606.55 17314.3 -36762.4 -7.42011 
491 1 12.9556 7.02101 2.94656 6.0147 -153929 -130557 -30013.9 21195.8 3681.28 -14581.1 -7.41549 
492 1 13.6317 5.77457 2.94702 6.0102 -164538 -131116 28368.8 15546 22589.4 -27455.5 -7.41937 
493 1 12.8905 4.56563 2.94104 6.0177 -146111 -140389 -22432.8 37765.8 -1601.9 -11847.3 -7.41564 
494 1 13.5661 3.31907 2.94122 6.00551 -153472 -138050 17329 32945.4 23615 -19109.1 -7.4184 
495 1 12.8239 2.11061 2.93668 6.01373 -144668 -142586 -11571 52062.4 -8509.55 -9966.66 -7.41614 
496 1 13.499 0.863883 2.93749 6.00589 -147167 -141128 3957.55 44015.2 17837 -13566.3 -7.41734 
558 1 15.8511 9.40653 2.96714 6.0107 -193659 -106270 51095.9 7629.94 16992.8 -41102.4 -7.42167 
559 1 15.1127 8.19593 2.95952 6.00822 -163637 -120248 -41707.4 30538.5 6388.71 -18321.8 -7.41544 
560 1 15.7893 6.94968 2.96025 6.00596 -176574 -122746 40717 25789.2 25549.6 -35224.5 -7.42067 
561 1 15.049 5.74003 2.95267 6.01053 -150007 -134563 -31712 47530.8 2116.95 -18555.4 -7.41566 
562 1 15.7251 4.4937 2.95286 5.99801 -161196 -133885 27046 45018.9 30463.2 -28433.9 -7.41947 
563 1 14.9834 3.28479 2.94618 6.00866 -143681 -141394 -19632 63490.9 -4489.75 -17477.1 -7.41607 
564 1 15.6589 2.03825 2.94669 5.99611 -150562 -139663 11580.8 60694.7 27023 -22853 -7.41821 
565 1 14.9163 0.829753 2.94205 6.00391 -143723 -141276 -6027.45 73174.5 -14018.9 -17285 -7.4168 
627 1 17.2684 9.37356 2.97292 6.00885 -175971 -109290 -58860.9 39129.6 5241.63 -14155.7 -7.41495 
628 1 17.9455 8.12753 2.974 6.00427 -186638 -112131 58039.5 36612.5 23264.9 -34918.1 -7.42241 
629 1 17.2065 6.91698 2.96638 6.00974 -160964 -125083 -45084.8 59423.1 2623.46 -18689.1 -7.41543 
630 1 17.8831 5.67089 2.9667 5.99261 -171235 -125088 41091.6 59154.6 33015.7 -32061 -7.42096 
631 1 17.1424 4.46124 2.95897 6.00433 -149596 -136472 -29539.9 79067.8 -1766.76 -21007.4 -7.41596 
632 1 17.8182 3.21493 2.95916 5.98612 -157279 -134759 22598 80358.9 35063.4 -28838.3 -7.41942 
633 1 17.0762 2.00597 2.95266 5.99658 -144269 -140919 -14008.5 94053.6 -10681.2 -22005.6 -7.41666 
634 1 17.7514 0.759431 2.95407 5.98531 -147233 -140963 4471.64 92368.9 26072.3 -26403.8 -7.41801 
695 1 19.4229 10.5535 2.98338 6.01422 -179943 -105443 -79740 39838.8 1146.74 -5473.34 -7.41403 
697 1 19.3627 8.09655 2.97865 6.01413 -169550 -118102 -63173.9 65293.9 -840.664 -11982.3 -7.41477 
699 1 19.3004 5.64038 2.97216 6.0031 -158182 -130737 -43156.8 90361.3 -2486.89 -17067.5 -7.41558 
701 1 19.2356 3.18478 2.96513 5.99204 -149055 -138815 -23801.5 112686 -8280.85 -20059.6 -7.41642 
703 1 19.1687 0.729442 2.96042 5.98505 -144261 -141112 -5974.92 124531 -19828.1 -22218.4 -7.41741 
1938 2 11.0769 10.126 6.45368 6.01274 -98525 -186520 -24718.9 22052.9 14480.1 -7301.67 -7.41577 
1939 2 10.3985 8.88104 6.45857 6.00998 -123884 -168887 22296.4 -540.235 7623.55 -29160.5 -7.41876 
1940 2 11.1402 7.67251 6.45884 6.01866 -118302 -168076 -25044.3 6404.72 9266.55 -6160.55 -7.41548 
1941 2 10.4631 6.42684 6.46303 6.01807 -136621 -154508 22564.4 -17560.6 12132.4 -21542.3 -7.41866 
1942 2 11.2051 5.2184 6.4635 6.02009 -131666 -156978 -21285.8 -10989.9 4072.08 -5221.46 -7.41547 
1943 2 10.5291 3.97214 6.46703 6.01583 -142753 -146829 17814 -35045.5 16195 -14549.1 -7.41817 
1944 2 11.2715 2.76388 6.46708 6.01575 -140211 -149864 -12971.6 -26705.4 -2736.25 -5873.2 -7.41587 
1945 2 10.5963 1.51723 6.46963 6.01369 -146330 -144003 8173.17 -47245.7 15767.1 -9229.47 -7.4173 
1946 2 11.339 0.309056 6.4684 6.01262 -146228 -143916 -1236.37 -33438 -10604.3 -8173.77 -7.41667 
2007 2 12.4946 10.1632 6.44678 6.00441 -114888 -182165 32089.2 -1911.63 13072.3 -38672.3 -7.41982 
2008 2 13.2358 8.95437 6.4472 6.01136 -107419 -176701 -34578.5 5265.15 13173.8 -12651.2 -7.41553 
2009 2 12.5577 7.7093 6.45291 6.01493 -135019 -160784 30248.3 -19180.6 17424.1 -30821.4 -7.41951 
2010 2 13.2991 6.5005 6.45365 6.01325 -125170 -158978 -29714.1 -12383.6 9030.73 -11934.6 -7.41553 
2011 2 12.6225 5.2546 6.45868 6.0155 -145222 -146573 24384.3 -36417.1 21035.3 -22530.4 -7.41892 
2012 2 13.3645 4.046 6.45928 6.01109 -136504 -148472 -21221.7 -30397.2 2422.2 -10960.1 -7.41578 
2013 2 12.6889 2.79951 6.46317 6.0114 -147871 -140644 14339.7 -51116.6 20995.9 -15332.1 -7.41803 
2014 2 13.4314 1.59114 6.46269 6.00782 -142981 -143686 -9592.64 -43073.6 -7480.29 -11120.2 -7.4164 
2015 2 12.7563 0.344391 6.46497 6.01042 -146591 -141150 1467.79 -57521 16085.3 -10879.6 -7.41701 
2076 2 15.333 10.2339 6.43354 6.00838 -92957.3 -192148 -48719.2 680.225 12756 -13221.6 -7.41529 
2077 2 14.6534 8.98981 6.43975 6.01203 -124388 -175511 42689.9 -24292.3 23095.3 -36771 -7.42082 
2078 2 15.3945 7.7807 6.44078 6.00644 -112525 -170890 -41448.9 -17793.3 10751.3 -16416.5 -7.41546 
2079 2 14.7166 6.53553 6.44709 6.01183 -140105 -155859 34236.8 -42222.1 27914.8 -31108.9 -7.42 
2080 2 15.4582 5.32662 6.44808 6.00266 -127968 -155473 -30730.3 -37942.5 6585.81 -17889.8 -7.41577 
2081 2 14.7818 4.08059 6.45375 6.00697 -146684 -143514 22499.7 -59553.8 28564.6 -25000.7 -7.41896 
2082 2 15.5241 2.87194 6.45381 5.99905 -137772 -146538 -18102.9 -56298.3 -2456.98 -18488.4 -7.41628 
2083 2 14.8487 1.62538 6.45792 6.00353 -146559 -139878 8520.23 -71660.9 23422.4 -19835.9 -7.41782 
2084 2 15.5914 0.416941 6.45591 5.99639 -144112 -142578 -3910.41 -65397.9 -15625.7 -19668.4 -7.4171 
2145 2 16.7508 10.2678 6.42603 6.01034 -110229 -189186 60472.6 -28708.6 24206.3 -34308 -7.42258 
2146 2 17.4914 9.05833 6.42741 6.00431 -101142 -183876 -58657.1 -24316.5 7258.1 -13769.8 -7.41496 
2147 2 16.8121 7.81406 6.43331 6.00591 -128522 -169248 49325.9 -49069.9 32002.2 -33018.1 -7.42157 
2148 2 17.5533 6.6048 6.43467 5.99708 -117548 -167207 -44250.6 -46691.2 6093.1 -19385 -7.4155 
2149 2 16.8756 5.35953 6.44104 6.00021 -139989 -152475 34513.4 -69817.1 35560.2 -30657.9 -7.42029 
2150 2 17.6175 4.15055 6.44172 5.99107 -130577 -154564 -28263.6 -70437.9 925.645 -22882.8 -7.41613 
2151 2 16.9414 2.90447 6.44736 5.99541 -144046 -142955 18190.7 -88273.5 32384.6 -27097.5 -7.41891 
2152 2 17.6839 1.69574 6.4462 5.98666 -139686 -146507 -12292.5 -88458.6 -11097.9 -24775.8 -7.41692 
2153 2 17.0087 0.44923 6.44987 5.99352 -143951 -140790 1773.07 -97912.6 22649.4 -23769.6 -7.41764 
2215 2 18.9091 9.09013 6.42064 6.00176 -118518 -176387 68854.3 -51150.2 29766.8 -26724.4 -7.42345 
2217 2 18.9708 6.63593 6.42757 5.99379 -131496 -160535 51011.9 -75762.3 37553.1 -28146.7 -7.42201 
2219 2 19.0349 4.1811 6.43468 5.98805 -139307 -148068 31195.4 -100775 39241.6 -27515 -7.42035 
2221 2 19.1013 1.72588 6.43948 5.98401 -142478 -142252 11981.8 -119927 32431.6 -24951.9 -7.41874 
696 1 20.1008 9.30779 2.98478 6.00505 -185094 -107965 77759.3 41753.3 17567.3 -25998.6 -7.42426 
698 1 20.0401 6.85079 2.97914 5.99131 -175467 -117994 58272.1 68207.5 30258.8 -26498.3 -7.42271 
700 1 19.9768 4.39439 2.97197 5.98023 -162919 -128123 36414.6 95504.5 38557.1 -26242 -7.42092 
702 1 19.9111 1.9385 2.9655 5.97678 -151722 -136914 15263.9 116454 35421.5 -25952.4 -7.41916 
764 1 22.2557 10.4892 2.99086 6.00743 -169460 -116255 95125.4 38651.6 12179.8 -13118.7 -7.42578 
765 1 21.518 9.27777 2.98669 6.01579 -166326 -120548 -82720 60388.4 -5525.15 -3771.95 -7.41384 
766 1 22.1964 8.03252 2.9873 5.99324 -167819 -120336 75650.3 68106.6 24879 -14426.7 -7.42433 
767 1 21.4573 6.82166 2.98216 6.00436 -160569 -130021 -59896.9 90220.6 -5751.49 -8363.22 -7.4149 
768 1 22.1347 5.57612 2.98159 5.97983 -161570 -126134 51483.1 99657.4 37063.6 -15372.7 -7.42246 
769 1 21.3942 4.36597 2.97595 5.99182 -153047 -138050 -36303.4 119747 -7669.35 -11662 -7.41596 
770 1 22.0704 3.12004 2.97508 5.97166 -153483 -133108 27423.8 128830 40598.9 -16731.2 -7.42044 
771 1 21.3285 1.91054 2.97027 5.98132 -146842 -141631 -15359.7 141702 -16253 -13859.3 -7.41705 
772 1 22.0039 0.664329 2.97075 5.97288 -146547 -140727 5714.17 144763 31540 -18105.4 -7.41863 
833 1 23.6732 10.4592 2.99016 6.0175 -149418 -134231 -98116.3 46173 -7627.35 554.907 -7.41302 
834 1 24.3527 9.21467 2.99065 5.99716 -149560 -134539 89060.2 59475.3 20603.3 -1408.77 -7.42543 
835 1 23.6137 8.00378 2.9873 6.00478 -150792 -138503 -76059.4 77615.9 -8521.35 -304.159 -7.41414 
836 1 24.2922 6.75884 2.98631 5.9836 -151216 -133724 65357.8 91859.9 33396 -1126.2 -7.42369 
837 1 23.5521 5.54847 2.98241 5.9923 -149693 -142762 -50214.5 111033 -7849.89 -1037.36 -7.41536 
838 1 24.2292 4.30301 2.98036 5.97292 -149471 -134741 39700.2 125352 41355.1 -2035.81 -7.42162 
839 1 23.4877 3.09321 2.97674 5.98166 -146914 -144516 -26230.9 141447 -12377.2 -1629.14 -7.41654 
840 1 24.1636 1.84726 2.97518 5.96988 -146483 -138384 16134.4 150951 37977.1 -4292.47 -7.41959 
841 1 23.4213 0.637882 2.97326 5.97484 -144779 -142750 -5272.14 157538 -24579.7 -2843.47 -7.41784 
902 1 26.5094 10.396 2.99054 6.00228 -127601 -156838 94748.3 46182.2 18754.3 9068.57 -7.42577 
903 1 25.7702 9.18539 2.98821 6.00676 -130703 -155278 -86770.1 57223.9 -7847.96 3575.4 -7.41362 
904 1 26.4498 7.9411 2.98662 5.99016 -135666 -150120 74744.4 75943.4 30490.1 11365 -7.42431 
905 1 25.7097 6.73086 2.98404 5.99476 -136894 -153966 -62259.7 89423 -6873.79 7165.53 -7.41481 
906 1 26.3879 5.48591 2.98092 5.97924 -140927 -143808 50210.9 108350 39850.3 12471.1 -7.42242 
907 1 25.6466 4.2761 2.97852 5.98367 -140761 -151188 -37136.8 122996 -8102.87 9745.77 -7.416 
908 1 26.3232 3.03047 2.97507 5.97329 -142986 -140366 26143 138417 40736.6 11152.5 -7.42038 
909 1 25.581 1.82105 2.97401 5.97581 -142993 -146589 -15008.2 148580 -17501.5 10823 -7.41722 
910 1 26.2566 0.574961 2.972 5.97378 -143907 -141204 4652.06 155035 31130.1 8440.91 -7.41856 
971 1 27.9271 10.3656 2.98654 6.01027 -108134 -176117 -88334.7 34594.7 -2969.82 3837.74 -7.41357 
972 1 28.6077 9.12191 2.98406 5.99842 -121001 -169739 76852.1 56731.4 28454.9 20646.7 -7.42424 
973 1 27.8674 7.91194 2.9821 5.99955 -119112 -168504 -68809.6 62023.5 -3183.66 10901.6 -7.41452 
974 1 28.5465 6.66748 2.97797 5.9889 -132037 -157058 56472.5 84371 37640.7 23015.2 -7.42266 
975 1 27.8053 5.45784 2.97624 5.98936 -129567 -160285 -45741.4 92905.4 -3093.96 16674.1 -7.41557 
976 1 28.4827 4.21253 2.97128 5.9819 -138904 -146776 34264.4 112866 40834.2 23111.3 -7.42084 
977 1 27.7407 3.00323 2.97063 5.9802 -137304 -152127 -24008.4 121948 -9311.11 20178.3 -7.41662 
978 1 28.4165 1.75723 2.9665 5.97861 -141931 -141826 13367.1 134663 34707.9 20854.1 -7.41906 
979 1 27.674 0.548129 2.96814 5.97496 -143431 -144316 -4247.91 137893 -23387.6 21433.3 -7.41783 
2214 2 19.5897 10.3337 6.41688 6.00951 -99106 -185866 -79621.7 -27458.8 1127.36 -6216.66 -7.41403 
2216 2 19.6497 7.88043 6.42237 5.999 -112690 -173876 -62598.2 -52184.2 866.71 -13982.6 -7.41481 
2218 2 19.7121 5.42652 6.42896 5.98941 -125658 -162169 -42186.5 -80249.5 14.2914 -20136.5 -7.41569 
2220 2 19.7771 2.97199 6.43483 5.98177 -135707 -152527 -22552.4 -106758 -7237.74 -23813.4 -7.41661 
2222 2 19.8439 0.516955 6.4372 5.97746 -143240 -144439 -4083.63 -121209 -21774.5 -25440.3 -7.41771 
2283 2 21.0074 10.3647 6.41187 6.00265 -118007 -169961 88777.3 -45002 21732.2 -15855.9 -7.42522 
2284 2 21.7472 9.15443 6.41393 6.00516 -118657 -167320 -82455.5 -51489.1 -5247.47 -6077.74 -7.41386 
2285 2 21.0673 7.91033 6.41667 5.99201 -128976 -159540 70112.8 -72881.4 32669 -18734.9 -7.42382 
2286 2 21.8079 6.70038 6.41876 5.99411 -128173 -161413 -59361.6 -81998.2 -4389.6 -11947.1 -7.41495 
2287 2 21.1296 5.4555 6.42295 5.98262 -137011 -149272 47199.3 -102902 40326.7 -20224.8 -7.42202 
2288 2 21.8711 4.24591 6.42458 5.984 -135875 -154975 -35585.1 -114182 -6251.61 -16134.4 -7.41607 
2289 2 21.1945 3.00026 6.42895 5.97766 -141239 -142895 24528.3 -130715 39705.8 -19058.9 -7.4201 
2290 2 21.9368 1.791 6.42898 5.97682 -141184 -148043 -14377.3 -138921 -16432.5 -18166.6 -7.41721 
2291 2 21.2613 0.544851 6.43178 5.97639 -143349 -141471 4009.39 -146200 29655.7 -16304.1 -7.41838 
2352 2 23.8448 10.4282 6.40996 6.01425 -134818 -148506 -98075.1 -44047.1 -7718.5 -1250.97 -7.41302 
2353 2 23.1647 9.18398 6.41023 5.9962 -137219 -147146 87450.7 -60961.8 23167.1 -6477.43 -7.42529 
2354 2 23.9042 7.97338 6.41294 6.0018 -139601 -149122 -75950.9 -75256.2 -8310.99 -3550.3 -7.41415 
2355 2 23.2253 6.72868 6.41485 5.98374 -142362 -142343 64023 -92792.4 35022.8 -7941.59 -7.42355 
2356 2 23.9659 5.51852 6.41783 5.98973 -142783 -149474 -50045.6 -109059 -7419.89 -5469.69 -7.41538 
2357 2 23.2885 4.27318 6.42082 5.97404 -144405 -139355 38731.9 -125816 41651.2 -7593.29 -7.42151 
2358 2 24.0302 3.06351 6.42326 5.9795 -143680 -147778 -26014.2 -140288 -12142.4 -6566.56 -7.41658 
2359 2 23.3542 1.8176 6.42573 5.97165 -144292 -139764 15522.4 -151286 37500 -5279.96 -7.41951 
2360 2 24.0966 0.608254 6.4263 5.97413 -144464 -143463 -4929.48 -157127 -24884.6 -6256.49 -7.4179 
2421 2 25.2623 10.4581 6.40807 6.00489 -154813 -128296 98093.6 -42875.8 13536.1 5295.64 -7.42607 
2422 2 26.0004 9.24686 6.41143 6.01294 -156231 -130294 -86914.8 -61978.8 -7953.59 1073.42 -7.41361 
2423 2 25.3216 8.00195 6.41132 5.99103 -156560 -128849 77679.7 -73656 26198.3 5613.08 -7.42458 
2424 2 26.061 6.79121 6.41545 6.00023 -154494 -136704 -62542.1 -93860.1 -7574.48 3325.72 -7.41478 
2425 2 25.3832 5.5459 6.41669 5.97792 -154420 -130993 52487.9 -106790 38005.5 6176.24 -7.42265 
2426 2 26.124 4.33578 6.42119 5.9883 -150315 -141855 -37511.3 -125963 -8876.91 4985.08 -7.41595 
2427 2 25.4476 3.09 6.4228 5.9702 -149805 -134936 27688.6 -137573 41159.1 7883.39 -7.42057 
2428 2 26.1895 1.88044 6.42638 5.9788 -146250 -143107 -15524.2 -150080 -17441.8 6323.96 -7.41713 
2429 2 25.5141 0.634319 6.42665 5.97175 -145782 -140830 5561.27 -154431 32103.8 9999.82 -7.41869 
2490 2 28.0962 10.5217 6.41309 6.01914 -172932 -111895 -88483.9 -44339.4 -2720.39 2425.97 -7.41357 
2491 2 27.4178 9.27637 6.41181 6.00181 -175143 -113814 84037.8 -49867.8 17818.1 18043.1 -7.42489 
2492 2 28.156 8.06514 6.41696 6.01209 -166502 -122090 -69290.3 -72644.7 -4297.96 8146.86 -7.41449 
2493 2 27.4783 6.81962 6.41676 5.98766 -169183 -120701 62378.6 -79209.8 31065.4 19122.2 -7.42324 
2494 2 28.218 5.60911 6.4228 5.99977 -157975 -132681 -46510 -101183 -5011.53 12829.1 -7.41548 
2495 2 27.5413 4.36329 6.42341 5.97621 -159681 -128539 38530.8 -109474 39885.1 19971.4 -7.42131 
2496 2 28.2826 3.15353 6.42938 5.98783 -149683 -139547 -24990.5 -126732 -10210.4 15792.2 -7.41647 
2497 2 27.6069 1.90737 6.42947 5.97249 -150608 -136669 16053.5 -132582 36971.1 20998.3 -7.41941 
2498 2 28.3492 0.698148 6.43379 5.97999 -144567 -141385 -5769.59 -140136 -21904.3 18080.3 -7.41759 
1040 1 30.7658 10.3008 2.97979 6.00708 -109832 -186724 70835.9 36278.9 24990.6 28839.2 -7.42355 
1041 1 30.0253 9.09108 2.97816 6.00386 -103210 -182165 -67608.9 34590.2 2998.54 11521.2 -7.4146 
1042 1 30.7051 7.847 2.97309 6.0002 -125943 -169437 56755 58843.6 33914.6 29853.1 -7.42237 
1043 1 29.964 6.63755 2.97155 5.99449 -118076 -168448 -49799.5 59701.9 2743.61 18462.3 -7.41535 
1044 1 30.6419 5.39249 2.96558 5.99359 -137060 -153872 38920.2 82535.1 38464.1 29596.3 -7.42089 
1045 1 29.9001 4.18334 2.96479 5.98662 -130434 -156781 -30857 86539.2 -1281.2 23131.3 -7.41615 
1046 1 30.5764 2.93745 2.95921 5.9887 -141991 -144128 20321.2 104113 35554.1 27359.9 -7.41932 
1047 1 29.8339 1.72855 2.9603 5.98105 -139196 -147709 -12946.1 107075 -12977.2 25577.7 -7.41706 
1048 1 30.5092 0.482169 2.9566 5.98686 -143132 -140977 2485.49 115718 25220.5 24375 -7.4179 
1109 1 32.1835 10.2681 2.97292 6.00886 -92095.7 -193294 -58861.4 9159.86 9638.35 11617.5 -7.41495 
1110 1 32.8636 9.02421 2.96714 6.0107 -121516 -178339 51096 34122.5 27099.1 35267.9 -7.42167 
1111 1 32.1226 7.81493 2.96583 6.00209 -110013 -174130 -48259.9 29211.5 8499.35 17089.9 -7.41532 
1112 1 32.8009 6.57003 2.95944 6.00598 -136949 -159032 39404.8 53538 32636.9 32225.3 -7.42062 
1113 1 32.0594 5.36098 2.95836 5.99644 -125444 -158921 -34355 51487.1 5348.13 20712.8 -7.41581 
1114 1 32.736 4.11516 2.95224 6.00097 -144282 -145733 24992.2 72627.5 32967.1 28145 -7.41937 
1115 1 31.9938 2.90639 2.9523 5.99181 -136114 -148919 -19561.8 72176 -3507.06 22639.9 -7.41643 
1116 1 32.6693 1.65996 2.94768 5.99731 -145100 -140683 9354.46 86467.5 26581.8 23967.9 -7.4181 
1117 1 31.9266 0.451384 2.95006 5.98895 -143367 -143151 -4079.9 82975 -17686.3 24098 -7.41731 
1178 1 35.0222 10.199 2.96025 6.00594 -113978 -185453 40717.3 10452.8 17730.7 39739.4 -7.42067 
1179 1 34.2812 8.98999 2.95952 6.00823 -104575 -179285 -41708.4 3421.66 12672.9 14693.7 -7.41544 
1180 1 34.9598 7.74518 2.95329 6.01349 -134550 -163244 35834.9 28185.2 23180.7 33376.3 -7.42011 
1181 1 34.2184 6.53623 2.95231 6.00759 -122458 -160750 -34039.5 22040.9 9444.45 15819.8 -7.41559 
1182 1 34.8953 5.29049 2.9465 6.01179 -145325 -147500 27124.2 45630.9 26308.2 26363 -7.41929 
1183 1 34.1534 4.08176 2.94584 6.00438 -134699 -149253 -23467.6 41251.9 2873.09 15892.5 -7.41593 
1184 1 34.8291 2.83536 2.94119 6.00746 -147927 -140462 15130.1 60632.9 24740.8 19863.6 -7.41826 
1185 1 34.0866 1.62689 2.9419 6.00119 -141905 -143794 -10741.6 55053.5 -8252.1 16260.5 -7.41656 
1186 1 34.7617 0.380188 2.9391 6.00594 -145745 -140469 1201.82 67524.1 17959.8 15654.6 -7.41718 
1247 1 36.4399 10.1628 2.95267 6.01054 -97303.1 -187415 -31712.8 -17110.3 15011.7 11111.1 -7.41566 
1248 1 37.1187 8.91812 2.94702 6.01021 -125992 -169639 28369.2 6808.41 12482.7 33290.9 -7.41937 
1249 1 36.3773 7.70938 2.94656 6.01471 -118092 -166498 -30014.2 -411.378 10787.7 10478.5 -7.41549 
1250 1 37.0545 6.46379 2.94156 6.01672 -140423 -152537 26022.9 23996.8 16772.9 24846 -7.41905 
1251 1 36.3127 5.25515 2.94089 6.01556 -132194 -153283 -24379.5 17449.9 5533.57 9108.71 -7.41556 
1252 1 36.9888 4.00889 2.93675 6.0145 -146314 -143443 19159.3 40670.3 19542.6 16851.4 -7.41839 
1253 1 36.2465 2.80048 2.93657 6.01218 -140680 -146599 -14875.9 33415.4 -2364.91 8638.44 -7.41598 
1254 1 36.9217 1.55381 2.93373 6.01184 -147452 -141401 8120.19 52234.8 17844 10881.9 -7.41745 
1255 1 36.179 0.34556 2.93499 6.00911 -145623 -142735 -2424.16 40411.5 -12122.2 10033 -7.41677 
1317 1 38.5363 8.88067 2.94104 6.01766 -109079 -177369 -22432.8 -16377.3 11061.2 4536.72 -7.41564 
1319 1 38.472 6.42691 2.93658 6.0222 -124792 -164385 -21688.4 -283.495 6011.17 3704.62 -7.41542 
1320 1 39.1485 5.18094 2.93295 6.01774 -137742 -152302 19646.6 23894.3 13110.6 17123.1 -7.41832 
1321 1 38.4062 3.97269 2.93268 6.01889 -135343 -156156 -16371.9 16904.6 539.731 4460.64 -7.41558 
1322 1 39.0818 2.72623 2.92966 6.01455 -143039 -147281 13118.6 40200.6 15731.1 11731.1 -7.41767 
1323 1 38.339 1.51811 2.93025 6.0149 -143236 -148828 -6571.75 29158.8 -6377.98 6889.7 -7.41619 
1324 1 39.014 0.271337 2.92826 6.01519 -148067 -144823 2488.43 47333.6 12875.3 7739.56 -7.41674 
2559 2 29.5135 10.5525 6.41519 6.00856 -192426 -100965 80885.5 -24816.6 11981.2 29093.3 -7.42446 
2560 2 30.2507 9.34093 6.42125 6.01312 -176074 -110267 -67925.5 -48725.8 1820.11 10646.2 -7.41458 
2561 2 29.5732 8.09511 6.42022 6.00006 -183630 -112048 65336.6 -49090.6 23763.1 29724.5 -7.42318 
2562 2 30.3121 6.88435 6.42726 6.01006 -163411 -124301 -50635.9 -72163.7 66.3932 16444.7 -7.41527 
2563 2 29.6353 5.6384 6.42708 5.98742 -170561 -123245 45475.4 -74799.2 34812.5 28961.6 -7.42156 
2564 2 30.3758 4.4285 6.43449 5.99947 -152169 -135401 -32044.1 -94930.6 -3547.41 20119.6 -7.41599 
2565 2 29.6999 3.1823 6.43446 5.98005 -157321 -133062 24720.6 -98756 37618.9 27782.6 -7.41983 
2566 2 30.4419 1.97311 6.44086 5.99062 -145443 -140376 -14538.7 -111899 -12494 22153.2 -7.41681 
2567 2 29.7666 0.726672 6.4395 5.97943 -147188 -140739 5111.2 -111920 28425.4 26787.4 -7.41827 
2629 2 31.6679 9.37271 6.42603 6.01035 -194227 -105233 60471.4 -19918.3 17608.6 38117.7 -7.42258 
2630 2 32.4061 8.16183 6.43354 6.00841 -166894 -118296 -48720.1 -43196.6 5071.73 17657.9 -7.41529 
2631 2 31.7293 6.91571 6.43282 6.00065 -178794 -120102 46826.7 -40410.2 27848.3 34775.4 -7.42136 
2632 2 32.4693 5.70576 6.44067 6.0084 -152930 -132374 -35424.4 -62016.4 1581.34 20111.2 -7.41569 
2633 2 31.7931 4.45952 6.44052 5.99159 -163172 -131426 30241.6 -61689.3 33946.9 30347.8 -7.41994 
2634 2 32.5346 3.25038 6.44773 6.00286 -145045 -139959 -21053.2 -79131.9 -5036.27 20718.6 -7.41622 
2635 2 31.8592 2.0039 6.44713 5.98923 -151333 -138627 12728.1 -78489.7 30336.9 26497.4 -7.41852 
2636 2 32.6017 0.795235 6.45232 5.99766 -143637 -141090 -6202.75 -88962.8 -15608.7 21399.2 -7.417 
2698 2 34.4999 9.44166 6.44078 6.0064 -171907 -111700 -41448.8 -16314.1 8840.65 17518.9 -7.41546 
2699 2 33.8234 8.19531 6.43974 6.01204 -183814 -116175 42690 -10113.6 20297 38386.5 -7.42082 
2700 2 34.5629 6.98534 6.4472 6.01131 -154700 -129260 -34579.4 -32591 4370.43 17734.4 -7.41553 
2701 2 33.8866 5.73902 6.44678 6.00436 -166979 -130066 32090.2 -28250.6 26955 30657.4 -7.41982 
2702 2 34.6277 4.5299 6.45368 6.01273 -145414 -139604 -24720 -49149.1 -916.273 16191.1 -7.41577 