ITEM: TIMESTEP
50
ITEM: NUMBER OF ATOMS
12152
ITEM: BOX BOUNDS pp pp pp
0.0000000000000000e+00 9.5721004899999997e+01
0.0000000000000000e+00 1.6579364400000000e+02
0.0000000000000000e+00 1.5000000000000000e+01
ITEM: ATOMS id type x y z c_csym c_2[1] c_2[2] c_2[3] c_2[4] c_2[5] c_2[6] c_3 
152 1 0.88347 8.57869 2.88758 6.01932 -168810 -143600 -3725.41 -13584.9 12530.1 -3102.91 -7.41379 
153 1 0.150379 7.36518 2.88464 6.02526 -154955 -158416 2146.37 -8156.13 14324.5 -1330.76 -7.41397 
154 1 0.834196 6.12316 2.88224 6.02588 -164970 -150016 -1709.73 -6187.66 8596.66 -2605.2 -7.41372 
155 1 0.10067 4.90991 2.88023 6.02647 -158526 -159171 199.13 -3701.85 8414.43 -891.989 -7.41374 
156 1 0.784325 3.66784 2.87881 6.02701 -161943 -155623 -824.004 -3515.6 4935.58 -1954.12 -7.41366 
157 1 0.0505149 2.45479 2.87771 6.02661 -156982 -163626 -539.948 -357.261 3712.05 -468.175 -7.4136 
158 1 0.734101 1.21278 2.87718 6.02724 -159983 -162119 -649.654 177.462 1558.6 -1298.08 -7.41365 
159 1 0.000167626 -0.000196231 2.87692 6.02782 -155198 -160821 -671.778 -1614.61 -8.95576 -6.47295 -7.41352 
288 1 2.30097 8.54969 2.88826 6.01892 -163954 -153561 2874.19 -10697.9 17287.9 -4078.54 -7.41417 
289 1 2.98485 7.30763 2.88582 6.02064 -171639 -141794 -1313.24 -7995.25 10656.2 -7653.17 -7.41384 
290 1 2.25169 6.09415 2.88286 6.02454 -159601 -155772 409.454 -1264.73 10808 -3732.96 -7.4138 
291 1 2.93537 4.85206 2.8814 6.02686 -165188 -151431 -347.417 -2735.77 6810.5 -6399.82 -7.41373 
292 1 2.20179 3.63885 2.87939 6.02565 -158152 -160616 -592.611 1420.04 5451.96 -3397.44 -7.41365 
293 1 2.88552 2.39685 2.87883 6.02635 -159781 -158636 -289.439 -411.476 3219.49 -5154.23 -7.41366 
294 1 2.15155 1.18386 2.87772 6.02857 -158101 -163550 -723.157 4216.5 1231.52 -3140.8 -7.41357 
423 1 5.13451 8.49295 2.89132 6.01885 -185045 -136660 545.796 -11133.4 13038.2 -13454 -7.41422 
424 1 4.40233 7.27897 2.88734 6.01768 -168103 -153593 -366.196 -1528.77 13510.3 -6631.59 -7.41395 
425 1 5.086 6.03689 2.88584 6.02195 -177887 -147571 1359.78 -3549.17 9250.19 -11755.1 -7.41404 
426 1 4.35284 4.82347 2.88285 6.02441 -161434 -156730 -1375.26 2180.4 7486 -6482.28 -7.41378 
427 1 5.03654 3.58138 2.88227 6.02618 -164808 -151418 984.126 -1128.14 5465.41 -9976.73 -7.41373 
428 1 4.30298 2.36812 2.88024 6.02484 -157978 -159335 -1229.46 5137.7 2585.52 -6383.13 -7.4137 
429 1 4.9867 1.12611 2.88053 6.02507 -160533 -158457 -2.44315 729.517 1781.68 -8363.67 -7.41369 
558 1 6.55193 8.46466 2.89372 6.01404 -176775 -142010 -2652.52 -353.57 16266.8 -9379.04 -7.41398 
559 1 7.23575 7.22253 2.89224 6.0192 -184165 -134643 4742.21 -3616.73 12004.3 -17845.8 -7.41435 
560 1 6.50338 6.00857 2.8882 6.01761 -172512 -149887 -3338.95 6776.75 9808.44 -9655.32 -7.41391 
561 1 7.18705 4.76648 2.88765 6.02285 -178058 -146708 3708.64 169.585 8230.54 -15747.8 -7.4141 
562 1 6.45401 3.55294 2.88459 6.02139 -163129 -155088 -2661.38 7573.48 4192.51 -9887.79 -7.41383 
563 1 7.13759 2.31083 2.88493 6.02609 -168760 -151895 1787.36 1600.8 4384.92 -13693.7 -7.41389 
564 1 6.40413 1.09748 2.88285 6.0221 -160673 -156729 -1141.88 8134.76 -465.863 -10212.3 -7.41382 
693 1 9.38468 8.40949 2.90045 6.01235 -198759 -124332 10059 1225.16 14692.2 -24147.9 -7.41498 
694 1 8.65315 7.19501 2.89549 6.01113 -179622 -140700 -6974.22 13069.5 12121.5 -12568.5 -7.41398 
695 1 9.33671 5.95279 2.89501 6.01842 -189221 -133213 8232.62 8306.13 11249.1 -22039.4 -7.41458 
696 1 8.60442 4.73869 2.89093 6.01358 -173950 -143921 -5496.92 16135.1 5990.3 -13331.8 -7.41397 
697 1 9.28798 3.4965 2.89133 6.02167 -178374 -141798 5228.73 8688.3 7460.91 -19784.8 -7.41426 
698 1 8.555 2.28278 2.88822 6.01794 -166857 -150840 -2920.68 17500.3 627.551 -14081.8 -7.41396 
699 1 9.23865 1.04072 2.88948 6.01994 -169492 -153599 1571.54 7937.05 3461.52 -17624.3 -7.41411 
6096 2 0.534348 8.60716 6.51234 6.02301 -151950 -163500 3726.97 14584.5 17762.8 732.423 -7.41409 
6097 2 0.583553 6.15214 6.51773 6.02692 -157198 -161800 964.268 5928.11 11350 242.528 -7.41379 
6098 2 0.633453 3.69698 6.52119 6.02636 -157619 -161673 -290.928 1295.81 6061.28 -210.548 -7.41362 
6099 2 0.684006 1.24191 6.52282 6.02876 -157922 -161657 -651.784 1401.17 1891.51 -701.87 -7.41357 
6100 2 0.000444999 -0.000172699 6.52308 6.02792 -154364 -157917 -667.305 -1717.86 -11.1983 3.99428 -7.4136 
6228 2 1.9519 8.6365 6.51178 6.01563 -159312 -158662 -3321.92 12710.3 13275.9 -3684.6 -7.4139 
6229 2 2.68519 7.42314 6.51415 6.02008 -146801 -168353 1343.28 11724.1 14789.7 -2156.54 -7.41399 
6230 2 2.00102 6.18137 6.51715 6.02378 -163670 -157964 -1374.49 6919.51 9349.98 -3277.27 -7.41379 
6231 2 2.7346 4.96824 6.51861 6.02432 -153323 -167407 -362.539 6424.73 8926.06 -2699.57 -7.41377 
6232 2 2.05094 3.72623 6.52062 6.02558 -159676 -157736 -588.345 -320.648 5659.28 -3039.95 -7.41365 
6233 2 2.78502 2.51329 6.52118 6.0273 -156364 -158996 -831.201 3009.11 4151.28 -3316.84 -7.41359 
6234 2 2.10148 1.27113 6.52228 6.02773 -158150 -155419 -538.884 129.99 2241.5 -2986.61 -7.41361 
6235 2 2.83539 0.0580877 6.52201 6.02866 -162453 -156605 -619.563 1338.32 289.671 -4098.11 -7.41356 
6363 2 4.78791 8.69332 6.5087 6.01652 -135172 -184151 536.719 14298.4 18151.7 -4576.67 -7.41419 
6364 2 4.10278 7.45218 6.51266 6.01847 -152243 -167582 -340.978 5025.34 12504.3 -8404.96 -7.41394 
6365 2 4.83641 6.23902 6.51419 6.01879 -144103 -174414 -1309.56 7106.02 11933.7 -5393.82 -7.41385 
6366 2 4.15212 4.99735 6.51714 6.02264 -154980 -160720 422.447 -1731.03 8640.14 -7504.92 -7.41381 
6367 2 4.8862 3.78438 6.51774 6.02195 -153034 -163993 -1693.89 1055.53 6557.62 -6169.78 -7.4137 
6368 2 4.20248 2.54238 6.51975 6.02408 -160098 -158107 205.102 -3015.36 4977.1 -6851.48 -7.41373 
6369 2 4.93623 1.32925 6.51948 6.02489 -162855 -161557 -1074.57 -1001.61 2113.41 -7091.97 -7.41372 
6370 2 4.25281 0.087157 6.52062 6.02601 -164821 -161054 -512.121 -4531.16 1399.9 -6472.2 -7.41368 
6498 2 6.20556 8.72181 6.50624 6.01326 -140071 -178463 2261.66 3308.99 15936.8 -14251.9 -7.41433 
6499 2 6.93917 7.50859 6.50783 6.0154 -129665 -185467 -3664.57 6455.93 14753.6 -8157.13 -7.41391 
6500 2 6.25397 6.26748 6.51174 6.02015 -147723 -169505 2866.36 -4451.36 12162.5 -12912.4 -7.41415 
6501 2 6.98795 5.05443 6.5124 6.0173 -146840 -177368 -3708.98 -2700.44 8975.89 -9289.39 -7.41387 
6502 2 6.30367 3.81289 6.51535 6.02231 -157996 -166946 2142.36 -10680.2 8326.69 -11714.5 -7.41396 
6503 2 7.03743 2.59972 6.5151 6.01969 -154041 -167604 -2480.84 -4095.01 3942.47 -10455.7 -7.41387 
6504 2 6.35364 1.35784 6.51715 6.02545 -163408 -163028 635.776 -10788.9 4529 -10821.3 -7.41377 
6505 2 7.0875 0.144776 6.51597 6.02103 -161385 -160707 -477.288 -2945.78 -415.51 -11893.7 -7.41393 
6633 2 9.04322 8.77658 6.49968 6.01442 -115919 -201588 -7835.11 5133.31 17054.9 -10571.2 -7.41399 
6634 2 8.35685 7.53622 6.50438 6.01719 -134899 -183750 7058.9 -8028.56 15909.4 -18833.9 -7.41463 
6635 2 9.09071 6.32309 6.50511 6.01424 -131258 -190876 -7369.51 -3438.7 11088.7 -12334 -7.41389 
6636 2 8.40544 5.08213 6.50897 6.02145 -150055 -176713 5721.33 -15650.3 12135.7 -17362 -7.41441 
6637 2 9.13936 3.86904 6.50877 6.01431 -141096 -178392 -5303.98 -7996.25 5629.48 -13961.4 -7.41391 
6638 2 8.4549 2.62755 6.51174 6.02141 -154197 -168147 3262.16 -18825.6 8172.89 -16040.1 -7.41405 
6639 2 9.18897 1.4145 6.51055 6.01423 -153029 -166549 -2142.41 -10127.6 811.974 -15679.8 -7.41403 
6640 2 8.50493 0.172719 6.51265 6.01913 -160250 -158880 203.237 -19563.1 4014.57 -14952.1 -7.41389 
828 1 10.802 8.38326 2.90438 6.00076 -193110 -125920 -12549.8 20786.6 14041.3 -14735.5 -7.41396 
829 1 11.4857 7.141 2.90402 6.01157 -200982 -118193 14733 16414.8 14134.1 -28144.6 -7.41531 
830 1 10.754 5.92639 2.89909 6.01096 -184300 -133140 -10176.4 29406.9 7671.84 -16261.8 -7.41396 
831 1 11.4375 4.68409 2.89957 6.01567 -187357 -129690 10519.9 20382.6 10694.6 -25992 -7.41487 
832 1 10.7053 3.46976 2.89552 6.01257 -176157 -139642 -6334.74 30092.3 1807.9 -17583.5 -7.41405 
833 1 11.389 2.22762 2.89683 6.0144 -176178 -140807 5372.44 20621 6879.25 -23698.3 -7.41457 
834 1 10.656 1.01373 2.89373 6.01513 -167404 -148891 -1656.84 30223.4 -3391.98 -18886.6 -7.41415 
963 1 13.633 8.33156 2.91412 6.00288 -218204 -100319 22994.6 22818.1 16526.6 -33342.1 -7.41617 
964 1 12.903 7.11593 2.90861 6 -197659 -121498 -16813.4 40240.1 8961.9 -18221.7 -7.41392 
965 1 13.5864 5.87366 2.90918 6.01051 -201891 -118505 17792.3 32639 13762.7 -31564.9 -7.41571 
966 1 12.8548 4.65888 2.90439 6.0114 -182999 -130516 -11719.3 44468.6 2840.59 -20260.1 -7.41402 
967 1 13.5385 3.41672 2.90575 6.0111 -186707 -129703 11066.6 33795.9 10372.5 -29396.2 -7.41522 
968 1 12.8063 2.20224 2.90184 6.01375 -173890 -138824 -5371.82 45203.8 -2778.18 -22079.9 -7.41421 
969 1 13.4904 0.960383 2.90399 6.00535 -166000 -144687 3680.46 32658 6584.39 -27037.7 -7.41482 
1098 1 15.0503 8.30797 2.91882 5.99312 -212442 -101019 -25423.7 48961.2 9612.58 -19006.2 -7.41372 
1099 1 15.7339 7.0657 2.91949 6.0032 -217236 -96879.3 26699.5 42483.2 16370.3 -35847.2 -7.41666 
1100 1 15.0037 5.84994 2.91428 6.00181 -197635 -117073 -19109.9 60272.4 3511.94 -21729.3 -7.41394 
1101 1 15.6873 4.60782 2.91567 6.00419 -195200 -120146 18739.8 48558.9 13702.5 -34031.5 -7.41605 
1102 1 14.9558 3.39288 2.91118 6.01196 -183996 -133213 -11168.7 62020.9 -2333.33 -24152.5 -7.41428 
1103 1 15.64 2.15114 2.91328 6.00122 -178131 -139133 9490.16 47820.8 10401.2 -31806.4 -7.41554 
1104 1 14.9079 0.936549 2.90966 6.00885 -166063 -148789 -2341.69 60633.5 -7586.74 -26279.6 -7.41456 
1233 1 17.8801 8.26045 2.92977 5.99582 -230559 -79338.6 36689.1 53792.5 18381.5 -38492 -7.41767 
1234 1 17.1511 7.04375 2.92447 5.9957 -212651 -100637 -28356.1 73528.3 3723.41 -21948 -7.41372 
1235 1 17.8351 5.80172 2.92587 5.99786 -209270 -100987 27889 64585.6 16549.2 -37124.5 -7.417 
1236 1 17.1047 4.58584 2.92111 6.00379 -190672 -117810 -19078.2 80767 -2086 -24842.1 -7.41408 
1237 1 17.7891 3.34416 2.9231 5.99208 -185360 -123527 17249.4 68670.9 13990.4 -35204.2 -7.41629 
1238 1 17.0573 2.12907 2.91906 6.0035 -174078 -137834 -8423.41 82765.5 -7528.6 -27399.1 -7.41459 
1239 1 17.7425 0.887944 2.92163 5.98785 -164888 -149618 5500.93 66018.2 10815.9 -32854.7 -7.41567 
6768 2 10.461 8.80336 6.4954 6.01332 -121846 -198521 13219.4 -9704.75 19394.7 -24660.5 -7.41535 
6769 2 11.1947 7.5902 6.49621 6.00882 -116666 -207209 -12947.2 -4924.77 12658.8 -14789.4 -7.41392 
6770 2 10.5083 6.34994 6.50073 6.01666 -134378 -186828 11177.9 -21532.4 16039.2 -23163.9 -7.41502 
6771 2 11.2423 5.13676 6.50061 6.00792 -127284 -190159 -9953.47 -14533.3 6970.66 -17057.8 -7.41389 
6772 2 10.5569 3.89585 6.50438 6.01564 -142158 -176649 7678.1 -28627.4 12174.4 -21653.3 -7.41462 
6773 2 11.2911 2.68276 6.50325 6.00686 -141573 -174435 -5499.99 -18635.5 1806.09 -19233.1 -7.41407 
6774 2 10.6064 1.44136 6.50622 6.01551 -153781 -165210 3217.58 -29765 7980.3 -20216.3 -7.41433 
6775 2 11.34 0.227898 6.50412 6.0111 -160563 -162443 -174.622 -21043.4 -2747.2 -21429.8 -7.41434 
6903 2 13.3001 8.85534 6.48626 6.00092 -97854.3 -222854 -20564 -10596.6 13458.6 -16281.4 -7.41387 
6904 2 12.6125 7.61585 6.49111 6.01034 -119772 -199647 18616.2 -29554.5 19577.4 -28452.1 -7.41579 
6905 2 13.3464 6.4026 6.49111 5.99991 -110010 -201170 -16615.1 -20683.3 7771.46 -19248.4 -7.41383 
6906 2 12.6599 5.16232 6.49539 6.00868 -128482 -184839 14033.9 -37185.2 16161.3 -26984.5 -7.41532 
6907 2 13.3941 3.94914 6.4944 5.99936 -131269 -186369 -10857.4 -29396.3 2441.49 -21975.2 -7.41409 
6908 2 12.7086 2.70831 6.49803 6.01001 -144409 -174626 8141.73 -42575.7 12204.1 -25412.5 -7.41492 
6909 2 13.4422 1.49475 6.49607 6.00246 -150698 -168788 -3879.71 -31194 -2335.85 -24547.3 -7.4144 
6910 2 12.7574 0.253419 6.49898 6.01202 -159704 -160324 1479.42 -44994.9 7780.5 -23794.6 -7.41456 
7038 2 14.718 8.87943 6.48074 6.00216 -100603 -214255 27656.5 -36008.2 22286.6 -32667.7 -7.41667 
7039 2 15.4519 7.66613 6.48093 5.99046 -97382.3 -219308 -25217.9 -30425.6 7994.13 -20231.2 -7.41376 
7040 2 14.7642 6.42664 6.48535 6.00099 -113678 -198899 22301.1 -49159.5 19711.5 -31415.7 -7.41618 
7041 2 15.4982 5.21328 6.48462 5.99041 -118581 -199821 -18280.9 -41757.8 2610.4 -23492.9 -7.41402 
7042 2 14.8117 3.97314 6.48857 6.00159 -134674 -183837 15039 -58255.4 16314.1 -29897.9 -7.4157 
7043 2 15.5453 2.75942 6.48687 5.99214 -138326 -176968 -9698.57 -46144.8 -2307.52 -26499.1 -7.4144 
7044 2 14.8597 1.51864 6.49027 6.00378 -150627 -164369 6626.68 -61971.7 12255.8 -28185.8 -7.41516 
7045 2 15.5928 0.304637 6.48757 5.99428 -157803 -156440 -191.618 -50818.3 -6644.83 -29259.9 -7.4149 
7173 2 17.5589 8.92678 6.47081 5.98251 -78173.9 -240329 -35376.3 -40821.9 7694.09 -20012 -7.41357 
7174 2 16.8698 7.6883 6.475 5.99211 -101794 -215171 31921.8 -63307 22448.2 -34523.9 -7.41718 
7175 2 17.6036 6.47475 6.47458 5.98044 -101759 -211168 -27552.6 -53919.1 2362.71 -23667.3 -7.41385 
7176 2 16.9159 5.2353 6.47852 5.99234 -121731 -191718 23680.1 -72853.6 19878.2 -33208.6 -7.41653 
7177 2 17.6494 4.02143 6.47718 5.98287 -127173 -187290 -17649 -62789 -2625.84 -27037.2 -7.41436 
7178 2 16.9629 2.78128 6.48074 5.99462 -140197 -173155 13692.8 -79760.8 16450.5 -31555.6 -7.41586 
7179 2 17.6959 1.56711 6.47845 5.98503 -145305 -165606 -6349.57 -67376.5 -7046.95 -30102.5 -7.41494 
7180 2 17.0103 0.326359 6.48154 5.99796 -157531 -153729 2710.82 -84214.8 12313 -29607.9 -7.41516 
7308 2 18.9769 8.94693 6.46504 5.98345 -80923.4 -227744 42286.2 -71520 24132.1 -36214.6 -7.41815 
7310 2 19.0214 6.49465 6.46855 5.98328 -106215 -205556 33473.8 -87863.3 22593.1 -35101 -7.41746 
7312 2 19.0671 4.04119 6.47106 5.98473 -128868 -181440 22378.1 -98185.5 20053.4 -33619.4 -7.41667 
7314 2 19.1135 1.58683 6.4724 5.98805 -146182 -164517 9723.85 -101784 16628.5 -31802.8 -7.41587 
1368 1 19.2972 8.24039 2.93424 5.98856 -226344 -87205.3 -38901.6 88788.2 3525.05 -21106.6 -7.41344 
1369 1 19.9815 6.9986 2.93564 5.99151 -223778 -88549.5 37882.8 82007.3 18811.6 -38545.9 -7.41806 
1370 1 19.2523 5.78184 2.93089 6.00023 -205427 -107629 -28738.9 99547.6 -2135.93 -24292.8 -7.41389 
1371 1 19.937 4.54041 2.93275 5.98827 -201527 -111971 26311 88881.8 17048 -37030.9 -7.41725 
1372 1 19.2064 3.32446 2.92857 5.99772 -183312 -127396 -16674 105015 -7548.61 -27126.3 -7.41446 
1373 1 19.8917 2.08346 2.93089 5.98087 -175883 -135743 13080.5 91297.4 14613.7 -34980.5 -7.41637 
1374 1 19.1599 0.868273 2.92745 5.9914 -162426 -147123 -3546.26 104297 -12436.2 -29648.6 -7.41513 
1503 1 22.1267 8.19865 2.94446 5.9861 -228760 -67858.4 48136.1 96108.7 20452.6 -38473.1 -7.41901 
1504 1 21.3986 6.98094 2.93992 5.99688 -217047 -91716 -39449.8 119038 -2356.81 -22798.8 -7.41354 
1505 1 22.0837 5.73973 2.94165 5.98235 -210102 -98927 36120.7 107352 19529.6 -37333.8 -7.41816 
1506 1 21.3542 4.52294 2.93756 5.99437 -197837 -115588 -26548.1 124532 -7690.85 -25763.4 -7.41424 
1507 1 22.0399 3.28217 2.93963 5.97794 -189318 -122847 21966.3 112140 17850.8 -35644.6 -7.41724 
1508 1 21.3091 2.06616 2.93614 5.986 -174838 -138028 -11985 128479 -12576.7 -28399.5 -7.41501 
1509 1 21.9954 0.825886 2.93854 5.97255 -169550 -146774 6469.29 113717 15424.9 -33442.4 -7.41627 
1638 1 23.5438 8.183 2.94785 5.99196 -223756 -80751.9 -50471.6 129949 -2622.59 -20738.7 -7.41316 
1639 1 24.2294 6.94204 2.94945 5.97792 -217867 -81888.2 46144.8 123876 21349.7 -36380 -7.41903 
1640 1 23.5009 5.72438 2.94557 5.9918 -203496 -99108.8 -37283.9 142328 -7789.09 -23644.1 -7.41386 
1641 1 24.187 4.48382 2.9474 5.97448 -201033 -105919 31634.9 130973 20428.2 -35027.1 -7.41808 
1642 1 23.4572 3.267 2.94403 5.98248 -186402 -122826 -21911.5 148984 -12663.8 -26276.7 -7.4147 
1643 1 24.1436 2.02685 2.94608 5.96829 -180749 -132450 15199.9 134760 18740.4 -33190.8 -7.41703 
1644 1 23.4128 0.810764 2.94336 5.9751 -170041 -146321 -5264.44 149913 -16939.7 -28633.1 -7.41571 
1773 1 26.374 8.1469 2.95602 5.97473 -228615 -75179.4 55954.8 135376 22542.8 -34485.5 -7.41999 
1774 1 25.6466 6.92853 2.9524 5.98751 -212794 -91633.3 -48111.3 154885 -7826.4 -21116.1 -7.41347 
1775 1 26.333 5.68822 2.95403 5.97033 -210554 -96572.5 41494.4 146061 22343.1 -33440.3 -7.41895 
1776 1 25.6042 4.47067 2.95084 5.98015 -198279 -112390 -32559.4 164080 -12623.5 -23612.3 -7.41435 
1777 1 26.291 3.23073 2.95257 5.96643 -192774 -118034 24760.2 153756 21353.9 -31918.2 -7.41786 
1778 1 25.561 2.0139 2.94995 5.97138 -178871 -130271 -15142 168946 -16927.3 -25900.7 -7.4153 
1779 1 26.2483 0.774307 2.95179 5.96137 -173654 -136193 6466 156603 19550 -30013.6 -7.41666 
1908 1 27.7911 8.13497 2.95802 5.98462 -221946 -85342.8 -58464.9 163306 -7751.74 -18404 -7.4131 
1909 1 28.478 6.895 2.95948 5.96834 -219338 -88466 51259.8 157215 23641.7 -31128.7 -7.41976 
1910 1 27.7502 5.67675 2.95651 5.97885 -205219 -101446 -43219.6 174374 -12430.7 -20704.9 -7.4139 
1911 1 28.4374 4.43704 2.958 5.96431 -203020 -106224 34669.6 165587 23304.4 -29925.8 -7.41861 
1912 1 27.7083 3.21955 2.95549 5.96974 -190451 -120786 -25634.9 183118 -16740.8 -22800.6 -7.4149 
1913 1 28.3958 1.98014 2.95701 5.95882 -187190 -125395 16072.1 172172 22142.4 -28343.9 -7.41749 
1914 1 27.6656 0.763243 2.9551 5.96245 -174251 -134037 -6604.84 185887 -20401.6 -24728.8 -7.41591 
7309 2 19.7105 7.73318 6.46497 5.97347 -84919.6 -227920 -38128.9 -66629.2 1856.34 -22676.9 -7.41356 
7311 2 19.7548 5.2806 6.46766 5.97346 -109074 -199819 -27367.5 -77777.9 -3167.27 -26253.8 -7.41413 
7313 2 19.8002 2.82688 6.4693 5.97524 -134673 -174972 -14664.1 -86480.8 -7667.34 -29526.2 -7.41482 
7315 2 19.846 0.372096 6.46978 5.97898 -158440 -157281 -912.563 -89582 -11457.8 -32455.9 -7.41561 
7443 2 21.819 8.98869 6.45628 5.96747 -70781.7 -239489 -49209.2 -76603.2 1297.12 -20908.8 -7.41317 
7444 2 21.1285 7.75102 6.45929 5.97406 -89132 -214987 43780.4 -100609 24337.6 -35639.9 -7.41846 
7445 2 21.8617 6.53673 6.45887 5.96577 -98042.9 -212228 -38110.8 -94093.4 -3700.54 -24478 -7.4138 
7446 2 21.1726 5.29822 6.46186 5.97478 -112740 -195500 32094.3 -113358 22783.1 -34353.3 -7.41762 
7447 2 21.9056 4.08373 6.46069 5.96519 -123634 -191105 -24571.3 -105812 -8311.66 -27779.4 -7.41455 
7448 2 21.2178 2.84445 6.46355 5.97706 -138878 -176406 18302.3 -123494 20268.7 -32710 -7.41675 
7449 2 21.9503 1.62957 6.46158 5.96692 -145130 -165870 -9438.42 -110483 -12258.7 -30783.3 -7.4154 
7450 2 21.2634 0.389669 6.46422 5.98106 -158078 -152030 3305.68 -127752 16829.1 -30741 -7.41584 
7578 2 23.2371 9.00447 6.4511 5.96669 -77051.4 -224992 54017.3 -110774 25190 -35034.5 -7.41944 
7579 2 23.9698 7.78989 6.45118 5.96061 -83067.4 -223307 -49168 -106623 -4097.08 -22098 -7.41342 
7580 2 23.2795 6.55218 6.45359 5.96578 -103831 -205099 42242.7 -127464 24618.7 -33915 -7.4186 
7581 2 24.0122 5.33744 6.45303 5.9582 -106387 -199905 -35366.9 -120227 -8807.33 -25278 -7.41411 
7582 2 23.3232 4.09891 6.45545 5.96631 -125429 -180646 27911.7 -142230 23003.5 -32473.4 -7.41761 
7583 2 24.0558 2.88384 6.45416 5.9588 -133261 -172634 -19411.8 -132581 -12936.9 -28212.4 -7.41502 
7584 2 23.3679 1.64461 6.45649 5.96983 -146387 -161129 11744.6 -148305 20415.5 -30705.7 -7.41654 
7585 2 24.0997 0.429089 6.45443 5.96231 -157453 -150441 -2259.94 -135097 -16256.3 -30885.4 -7.41608 
7713 2 26.0793 9.04041 6.44469 5.95875 -72238.2 -228395 -59906.4 -115356 -4279.63 -19455.8 -7.41297 
7714 2 25.3878 7.80335 6.4465 5.95904 -88445.1 -209564 52376 -137666 25599.6 -32575.2 -7.41948 
7715 2 26.1203 6.58833 6.44651 5.95521 -97806.7 -205842 -46303.6 -132959 -9008.85 -22384.4 -7.4137 
7716 2 25.4301 5.35054 6.44838 5.95862 -110434 -188875 37978.8 -153338 24859.2 -31291.1 -7.41849 
7717 2 26.1623 4.13522 6.44775 5.95463 -120877 -182600 -30180.4 -146189 -13318.1 -25162.9 -7.41456 
7718 2 25.4734 2.89667 6.44965 5.96034 -136992 -169313 21276.9 -164684 23143.1 -29727.7 -7.41741 
7719 2 26.2052 1.68103 6.44831 5.9563 -149637 -163284 -12230.8 -154406 -16870.2 -27716.1 -7.41569 
7720 2 25.5172 0.442002 6.45018 5.96578 -159017 -152654 3234.88 -169991 20480.3 -27911.4 -7.41629 
7848 2 27.4974 9.05235 6.44059 5.95531 -79745.6 -211195 62148.4 -140040 25882.9 -30566.7 -7.42037 
7849 2 28.2293 7.83699 6.44112 5.95583 -89985.2 -211287 -56836.9 -138574 -8918.98 -19393.7 -7.41325 
7850 2 27.5381 6.59977 6.44244 5.95332 -104657 -195507 48099 -159763 25955.1 -29394.6 -7.41944 
7851 2 28.27 5.38424 6.44239 5.95283 -115820 -191287 -41016 -154679 -13344.3 -21917.9 -7.41413 
7852 2 27.58 4.14638 6.44383 5.95401 -125320 -176578 31435.6 -174236 25046 -28020.5 -7.41824 
7853 2 28.3116 2.93053 6.44319 5.95231 -141038 -171195 -22890.3 -166815 -17150.4 -24282.1 -7.41518 
7854 2 27.6227 1.69212 6.44466 5.95696 -152377 -160653 12861.8 -182762 23192.3 -26435.3 -7.41714 
7855 2 28.3537 0.475859 6.44337 5.95417 -160865 -150265 -3425.42 -170902 -20118.8 -26409.6 -7.41627 
2043 1 30.6222 8.10351 2.96388 5.96629 -222305 -81088.4 60721.3 161328 24375.5 -28268.9 -7.42053 
2044 1 29.8952 6.88477 2.96105 5.9767 -213546 -98125.5 -53356.8 181477 -12088.2 -17728.9 -7.41355 
2045 1 30.5827 5.64535 2.96237 5.96292 -210621 -100935 44561 174743 24635.6 -27346.2 -7.41946 
2046 1 29.8546 4.42719 2.96 5.96964 -200669 -111903 -36147.5 191253 -16389.9 -19612.2 -7.41444 
2047 1 30.5423 3.18794 2.96127 5.95701 -197434 -117025 26162.1 182772 24078.6 -26090.6 -7.41827 
2048 1 29.813 1.97048 2.95943 5.96145 -187183 -130646 -16891 198178 -20131.1 -21334.8 -7.41552 
2049 1 30.5011 0.731585 2.96067 5.95221 -181168 -136829 6221.01 188128 22652.4 -24507.4 -7.41709 
2178 1 32.0394 8.09433 2.96469 5.9762 -215442 -90347.5 -62830.1 183957 -11549.3 -14814.6 -7.41308 
2179 1 32.7275 6.85515 2.96586 5.95996 -212951 -93175 54216.6 180429 25430.6 -24367.2 -7.42015 
2180 1 31.9999 5.63657 2.96355 5.96913 -204375 -105871 -46174.9 196959 -15805.8 -16458.6 -7.41393 
2181 1 32.6881 4.3976 2.96464 5.95544 -200076 -108034 36311.3 192936 25417.9 -23384.9 -7.41903 
2182 1 31.9595 3.17958 2.96284 5.96048 -193416 -119897 -27266.3 207815 -19643.8 -17972.8 -7.41497 
2183 1 32.648 1.94084 2.96387 5.94952 -184595 -127287 16526.6 198322 24565.2 -22142.6 -7.41775 
2184 1 31.9184 0.723447 2.96264 5.95339 -181219 -138437 -6889.91 211756 -22781.5 -19374.9 -7.41617 
2313 1 34.8713 8.06669 2.96867 5.95897 -216134 -90732.5 63242 187478 25761.7 -21205.8 -7.42089 
2314 1 34.1446 6.8475 2.96638 5.9685 -206525 -102055 -55695.3 201961 -15025.4 -13465.9 -7.41352 
2315 1 34.8334 5.60886 2.96736 5.95137 -206718 -104674 46247 199964 26229.5 -20458.2 -7.41972 
2316 1 34.1053 4.39047 2.96552 5.95888 -196422 -116341 -37389.6 215336 -18909.7 -14765.9 -7.41448 
2317 1 34.7941 3.15197 2.9664 5.94875 -190248 -117448 26909.3 211492 25918.9 -19488.6 -7.41841 
2318 1 34.0652 1.93396 2.96512 5.95147 -181733 -126456 -17293.3 222191 -22220.7 -15970.1 -7.41558 
2319 1 34.7545 0.695745 2.96588 5.94206 -174144 -135545 6269.03 213283 24686.4 -18358.9 -7.41712 
2448 1 36.2884 8.06015 2.96862 5.9671 -206758 -100080 -64464.5 205934 -14076 -10757.2 -7.41301 
2449 1 36.9777 6.82181 2.96952 5.95376 -201503 -100570 55550.2 205193 26637.5 -17446.3 -7.42037 
2450 1 36.2505 5.6028 2.96766 5.95908 -201868 -111761 -47122.6 219970 -18011.1 -11821.3 -7.41403 
2451 1 36.9398 4.3646 2.96845 5.94612 -196906 -116252 37105.4 216920 26773.9 -16726.3 -7.41915 
2452 1 36.2114 3.14633 2.96708 5.95069 -187228 -125655 -27583.2 228563 -21451.9 -12812.5 -7.41511 
2453 1 36.9009 1.90832 2.96773 5.94455 -183264 -128379 16820.8 222891 26051.8 -15869.7 -7.4178 
2454 1 36.1718 0.690372 2.96693 5.94464 -173544 -133316 -6686.92 230816 -24202.5 -13795.1 -7.41634 
7983 2 30.3392 9.08411 6.43672 5.95547 -84774.3 -210223 -66623.2 -142558 -8574.7 -16447.6 -7.41288 
7984 2 29.6472 7.84737 6.43755 5.95093 -96982.4 -194156 58016.6 -163208 26412.2 -26961.6 -7.42023 
7985 2 30.3786 6.63142 6.43804 5.95262 -107532 -191347 -51427.1 -161135 -13029.9 -18693.8 -7.41362 
7986 2 29.6877 5.39406 6.439 5.94931 -122347 -181737 41726.1 -177873 26265.5 -25758.6 -7.41916 
7987 2 30.419 4.17803 6.439 5.94973 -131675 -178330 -33616.2 -173215 -17044.5 -20773.7 -7.41464 
7988 2 29.7291 2.94015 6.44008 5.95068 -144581 -164409 23178.9 -191506 25146.9 -24406.6 -7.41797 
7989 2 30.4601 1.72375 6.43945 5.94867 -153300 -155201 -13990.7 -182796 -20322.1 -22720.5 -7.41569 
7990 2 29.7711 0.485304 6.44061 5.9541 -161624 -144539 3188.06 -197661 23065.3 -22919.3 -7.41671 
8118 2 31.7572 9.09345 6.43359 5.94949 -93967.4 -194884 67405.1 -163617 26355.7 -24177.8 -7.42101 
8119 2 32.488 7.87718 6.43457 5.95102 -104731 -193657 -61160.3 -164428 -12394.4 -15582.7 -7.41323 
8120 2 31.7964 6.64024 6.43513 5.94695 -115443 -180976 51835.3 -182151 26869.2 -23118 -7.41994 
8121 2 32.5273 5.42384 6.43567 5.94802 -126846 -179472 -43963.2 -181515 -16545.8 -17384.6 -7.41414 
8122 2 31.8366 4.18643 6.43636 5.9462 -136943 -168024 33717.6 -197544 26418.7 -21949 -7.41878 
8123 2 32.5673 2.96981 6.4363 5.94519 -148936 -160287 -24673.2 -191923 -20111.3 -19079.3 -7.41519 
8124 2 31.8776 1.73185 6.43711 5.94826 -156680 -149309 13698.8 -206626 25033.6 -20703 -7.4175 
8125 2 32.6077 0.514744 6.43645 5.9481 -172326 -144243 -4110.86 -200246 -22813.5 -20705.4 -7.41641 
8253 2 34.5981 9.12152 6.4318 5.95029 -98663.9 -192205 -70024 -168561 -11546.1 -12704.4 -7.41279 
8254 2 33.9058 7.88494 6.43201 5.94486 -112596 -178157 61429.6 -186132 26982.9 -20283.1 -7.42064 
8255 2 34.6362 6.66817 6.43299 5.94618 -121777 -175883 -53876.4 -187317 -15743.4 -14212.6 -7.41367 
8256 2 33.9449 5.43109 6.43336 5.94287 -132639 -165705 44083.5 -201986 27107.2 -19268.2 -7.41946 
8257 2 34.6753 4.21421 6.4338 5.94223 -144531 -161501 -35169.8 -199446 -19525.7 -15680 -7.41468 
8258 2 33.9848 2.97669 6.43429 5.94396 -152595 -150855 24484.1 -213416 26377.9 -18189.1 -7.41822 
8259 2 34.7147 1.75938 6.43417 5.94474 -165913 -146714 -14857.7 -209718 -22559.3 -17090 -7.41584 
8260 2 34.025 0.521488 6.43479 5.94672 -173199 -140176 3633.63 -220492 24735 -17139.8 -7.41696 
8388 2 36.016 9.12825 6.42948 5.94413 -106451 -171519 70294 -186720 26680.5 -17401.3 -7.42131 
8389 2 36.7458 7.91105 6.43083 5.94656 -117075 -172922 -62983.9 -191239 -14694.1 -11361.4 -7.41318 
8390 2 36.0538 6.67431 6.43089 5.94127 -129066 -164654 53951.3 -205095 27397.1 -16484.4 -7.42015 
8391 2 36.7838 5.45714 6.43176 5.94192 -139536 -163718 -45317 -205785 -18601.9 -12588.3 -7.41418 
8392 2 36.0927 4.22004 6.43201 5.94121 -150788 -154375 35117.9 -218004 27227.8 -15598.2 -7.41896 
8393 2 36.8223 3.00252 6.43239 5.94335 -158750 -149576 -25507.7 -215692 -21925.5 -13767.8 -7.41529 
8394 2 36.132 1.76498 6.43275 5.94287 -168422 -142674 14604.7 -226697 26163.4 -14713.5 -7.41764 
8395 2 36.8615 0.547352 6.43255 5.94201 -171908 -138821 -4492.87 -221563 -24425 -14875.2 -7.41652 
8524 2 38.1635 7.91655 6.4289 5.94251 -127170 -164687 63199.2 -203018 27286.5 -13655.6 -7.42088 
8526 2 38.2014 5.46219 6.43015 5.94087 -146685 -152190 45326.8 -217598 27668.7 -12906.1 -7.41967 
8528 2 38.2397 3.00724 6.43114 5.94077 -162001 -145992 25542.2 -229126 27108 -12179.1 -7.41838 
8530 2 38.2788 0.55201 6.43165 5.94249 -172092 -135366 4396.8 -235041 25725.6 -11438.6 -7.41699 
2583 1 39.122 8.03556 2.97129 5.9524 -193570 -101903 64421.8 201925 26652.4 -14358.4 -7.42105 
2584 1 38.395 6.81652 2.96933 5.95906 -193097 -110193 -56193.7 217295 -16888.7 -9150.79 -7.41347 
2585 1 39.0847 5.5785 2.97008 5.94907 -191334 -108459 46796.9 218100 27239.9 -13854.8 -7.41978 
2586 1 38.357 4.35973 2.9686 5.95175 -191507 -118319 -37539.3 231211 -20485.4 -9914.78 -7.41461 
2587 1 39.0468 3.12187 2.96918 5.94386 -186560 -120895 27269.2 227843 26947 -13234.3 -7.41843 
2588 1 38.3181 1.90359 2.96826 5.94541 -179954 -125938 -17047.2 235133 -23488.2 -10696.3 -7.41581 
2589 1 39.0082 0.665875 2.96872 5.94268 -176163 -132336 6265.23 227178 25842.6 -12478.1 -7.41712 
2718 1 40.5394 8.03046 2.97073 5.96049 -185785 -113675 -64737 211086 -15609 -6627.06 -7.41309 
2719 1 41.2297 6.79278 2.97145 5.94591 -187082 -112663 56175.5 214348 27340.5 -10856.3 -7.42052 
2720 1 40.502 5.57404 2.96982 5.95193 -185295 -119260 -46964.1 227456 -19299 -7234.02 -7.41404 
2721 1 41.1921 4.33629 2.97037 5.9458 -183852 -118282 37320.8 227398 27495.9 -10445.6 -7.41917 
2722 1 40.464 3.11769 2.96927 5.94681 -183162 -122862 -27175 235382 -22546 -7817.2 -7.41527 
2723 1 41.1542 1.88003 2.96969 5.94189 -181116 -124073 16846.6 233027 26830 -9900.72 -7.4178 
2724 1 40.4255 0.661759 2.96917 5.94235 -175303 -127695 -6113.68 237679 -25091 -8359.01 -7.41655 
2853 1 43.3742 8.00747 2.97264 5.94908 -179065 -111955 64873.6 209074 27185.5 -7725.36 -7.42105 
2854 1 42.647 6.78841 2.97086 5.95333 -179540 -121173 -56011.8 221909 -17956.2 -4728.64 -7.41361 
2855 1 43.3377 5.55095 2.9714 5.94159 -179143 -121008 47140.8 225012 27723 -7532.02 -7.41982 
2856 1 42.6094 4.33248 2.97012 5.94642 -177150 -124445 -36975.6 233611 -21395.4 -5145.17 -7.41465 
2857 1 43.2998 3.09491 2.97054 5.94312 -179519 -121387 27157.9 233818 27507.7 -7218.95 -7.4185 
2858 1 42.5714 1.8764 2.96979 5.94379 -179315 -124357 -16401.1 240432 -24233.9 -5500.32 -7.41588 
2859 1 43.2617 0.638829 2.97001 5.94214 -176501 -127077 6083.33 236754 26401.7 -6784 -7.41718 
2988 1 44.7916 8.00334 2.97174 5.95497 -171819 -124890 -64488.7 212426 -16421.1 -2469.31 -7.4132 
2989 1 45.4827 6.76607 2.97228 5.94542 -176568 -116902 56275.6 220711 27700.2 -4480.73 -7.42044 
2990 1 44.755 5.54722 2.97081 5.9478 -172969 -122350 -46527.8 230037 -20042 -2678.71 -7.41419 
2991 1 45.4456 4.30976 2.97124 5.93963 -175446 -122549 37323.7 232356 27850.9 -4373.98 -7.41911 
2992 1 44.7171 3.0914 2.9703 5.94311 -175656 -127794 -26522 238904 -23152.4 -2846.45 -7.41532 
2993 1 45.4076 1.85393 2.97054 5.94143 -177066 -127353 16597.2 238419 27176.5 -4187.62 -7.41787 
2994 1 44.6791 0.635514 2.97015 5.94202 -174729 -125285 -5304.45 239792 -25551.5 -3037.25 -7.41649 
3123 1 47.6277 7.981 2.97307 5.94542 -165950 -124745 64894.2 209802 27407.8 -1310.62 -7.42115 
3124 1 46.9001 6.76227 2.97142 5.95006 -169809 -128414 -55540.1 220364 -18432.6 -418.22 -7.41365 
3125 1 47.5911 5.52498 2.97185 5.94318 -170599 -122551 46888.1 227340 27960.5 -1375.67 -7.41987 
3126 1 46.863 4.30634 2.97068 5.94458 -171481 -126719 -36513.5 234877 -21819.1 -409.872 -7.4147 