ITEM: TIMESTEP
150
ITEM: NUMBER OF ATOMS
12152
ITEM: BOX BOUNDS pp pp pp
0.0000000000000000e+00 9.5721004899999997e+01
0.0000000000000000e+00 1.6579364400000000e+02
0.0000000000000000e+00 1.5000000000000000e+01
ITEM: ATOMS id type x y z c_csym c_2[1] c_2[2] c_2[3] c_2[4] c_2[5] c_2[6] c_3 
152 1 0.883552 8.57888 2.88686 6.01791 -167399 -147857 -3122.79 -17353.2 12448.9 -3114.42 -7.41382 
153 1 0.150598 7.36534 2.88363 6.02431 -153917 -161850 2974.04 -11998.1 14272.6 -1383.21 -7.41398 
154 1 0.834632 6.12344 2.88101 6.02293 -164026 -150818 -708.411 -8362.26 8552.62 -2595.42 -7.41373 
155 1 0.101074 4.91022 2.8788 6.02667 -154637 -160121 1361.25 -4968.28 8384.46 -925.02 -7.41372 
156 1 0.784673 3.6681 2.87723 6.02579 -161333 -153529 418.819 -3023.28 4904.34 -1958.29 -7.41364 
157 1 0.0507093 2.4551 2.87601 6.02848 -155983 -159096 798.103 -976.605 3706.65 -474.489 -7.41361 
158 1 0.734086 1.21289 2.8754 6.02883 -158686 -156625 726.874 -598.328 1550.65 -1296.46 -7.41358 
159 1 -4.00487e-05 -2.07036e-05 2.8751 6.03 -157778 -157625 734.917 -106.42 -0.814014 -0.877667 -7.41357 
288 1 2.30107 8.54967 2.88757 6.01971 -161463 -154243 3437.59 -14181.1 17249.5 -4108.63 -7.41416 
289 1 2.98516 7.30772 2.88491 6.01988 -172234 -142887 -586.253 -11910.1 10546.1 -7637.4 -7.41386 
290 1 2.25213 6.09421 2.88166 6.02346 -159435 -155975 1385.22 -5382.75 10774.9 -3745.68 -7.41384 
291 1 2.93577 4.85207 2.88005 6.02399 -166433 -148282 702.472 -4843.93 6736.3 -6380.81 -7.41376 
292 1 2.20215 3.63886 2.87785 6.02566 -158583 -156641 627.637 38.5735 5429.75 -3391.6 -7.41366 
293 1 2.88554 2.39664 2.87723 6.02701 -161927 -153019 961.242 -969.465 3173.82 -5143.19 -7.41366 
294 1 2.15156 1.18363 2.876 6.02737 -157543 -156986 618.385 2268.45 1229.15 -3116.91 -7.4136 
423 1 5.13481 8.49288 2.89086 6.01712 -184177 -131223 921.984 -14114.4 12937.1 -13454.7 -7.41414 
424 1 4.40264 7.27884 2.88656 6.01716 -167112 -148145 280.447 -4546.69 13495.2 -6616.8 -7.41398 
425 1 5.08632 6.03667 2.88493 6.02075 -175065 -139961 2084.9 -5421.76 9164.99 -11733.7 -7.41398 
426 1 4.35323 4.82313 2.88165 6.02188 -162778 -151986 -403.172 2265.72 7472.47 -6454.72 -7.41376 
427 1 5.03667 3.58088 2.88102 6.0249 -167052 -147567 1984.6 -345.225 5402.17 -9950.51 -7.41384 
428 1 4.30301 2.36766 2.87878 6.0247 -160032 -154988 -75.4572 5907.15 2563.22 -6350.51 -7.41367 
429 1 4.9864 1.12544 2.8791 6.02558 -160281 -154467 1131.2 1902.47 1740.32 -8344.91 -7.41374 
558 1 6.55224 8.46461 2.89348 6.00983 -178497 -136985 -2401.9 -2437.43 16286.6 -9347.77 -7.4141 
559 1 7.23598 7.22239 2.89189 6.01713 -187449 -128138 5041.99 -4491.56 11926.1 -17853.3 -7.41439 
560 1 6.50376 6.0083 2.88753 6.01544 -170977 -143828 -2763.34 6120.67 9789.84 -9620.51 -7.41387 
561 1 7.18722 4.76602 2.88692 6.02179 -176517 -138829 4326.39 2193.18 8176.68 -15745 -7.41417 
562 1 6.45412 3.55242 2.88358 6.02027 -164466 -149884 -1843.2 11042.1 4161.69 -9826.52 -7.41376 
563 1 7.13754 2.31018 2.88395 6.02299 -166098 -148999 2605.28 5394.37 4353.51 -13680.9 -7.41398 
564 1 6.40386 1.09692 2.88165 6.02253 -159373 -155557 -199.703 12887.7 -510.728 -10155.5 -7.41377 
693 1 9.38448 8.40965 2.90068 6.01017 -202022 -113728 9919.9 -1884.3 14628.5 -24198.8 -7.41497 
694 1 8.65337 7.19486 2.89539 6.00819 -182676 -132657 -6839.68 11494.3 12092.8 -12533.5 -7.41393 
695 1 9.33687 5.95254 2.89484 6.01663 -188522 -127029 8418.76 6713.66 11211.4 -22092.1 -7.41468 
696 1 8.60463 4.73837 2.89046 6.01465 -173426 -141934 -5119.71 18415.5 5933.77 -13285.3 -7.41384 
697 1 9.28809 3.49613 2.89087 6.01997 -175771 -140304 5614.57 11847.8 7444.25 -19816.7 -7.4144 
698 1 8.55498 2.28246 2.88752 6.01837 -164373 -150214 -2373.69 21614.9 576.878 -14001.1 -7.41387 
699 1 9.23862 1.04037 2.88888 6.0166 -162839 -152584 2068.46 13317 3472.28 -17620.3 -7.41415 
6096 2 0.533831 8.60732 6.51308 6.02186 -150689 -165722 4326.43 17572.4 17722.3 793.482 -7.41418 
6097 2 0.582723 6.15234 6.51897 6.02467 -152324 -163157 1980.31 8752.27 11318.8 297.726 -7.41384 
6098 2 0.632717 3.69731 6.52277 6.02697 -154271 -160985 959.215 3166.24 6039.19 -178.504 -7.41366 
6099 2 0.683311 1.24223 6.5246 6.02872 -156301 -158623 726.897 797.528 1895.65 -695.695 -7.41358 
6100 2 -2.62212e-05 -6.76714e-06 6.5249 6.03001 -157630 -157667 735.056 196.383 -0.599494 -0.338944 -7.41357 
6228 2 1.9514 8.63658 6.51247 6.01552 -156373 -159150 -2763.54 14863.4 13226.2 -3665.01 -7.41386 
6229 2 2.6847 7.42323 6.51507 6.02097 -143789 -171214 2084.68 12709.1 14745.2 -2072.4 -7.41399 
6230 2 2.00026 6.18161 6.51835 6.0215 -156555 -158412 -405.056 6131.33 9325 -3242.47 -7.41375 
6231 2 2.73407 4.96853 6.51995 6.02373 -148454 -166624 701.735 5595.49 8895.9 -2643.87 -7.41375 
6232 2 2.05022 3.7266 6.52215 6.02563 -156930 -158372 628.169 725.455 5653.1 -3008.95 -7.41366 
6233 2 2.78431 2.51366 6.52277 6.0259 -152929 -162045 420.196 1846.46 4146.41 -3268.27 -7.41364 
6234 2 2.10079 1.27153 6.52399 6.02852 -157079 -157486 798.954 -1850.8 2265.65 -2975.73 -7.4136 
6235 2 2.83493 0.0586046 6.52369 6.02746 -157396 -157514 690.39 187.055 293.321 -4082.21 -7.41361 
6363 2 4.78759 8.69335 6.50914 6.01704 -131947 -183180 922.926 15781.7 18118.4 -4477.73 -7.41414 
6364 2 4.10229 7.45224 6.51344 6.01721 -148626 -166557 280.585 6072.57 12475.3 -8376.5 -7.41397 
6365 2 4.83607 6.23914 6.5151 6.02013 -139467 -175650 -587.706 6916.97 11887.3 -5316.21 -7.41387 
6366 2 4.15161 4.99757 6.51834 6.02298 -151812 -163499 1388.52 -1071.06 8630.2 -7460.22 -7.41384 
6367 2 4.88569 3.78461 6.519 6.02264 -146616 -168280 -704.609 1361 6525.72 -6108.06 -7.41372 
6368 2 4.2018 2.54271 6.52121 6.02654 -154668 -160457 1363.53 -5170.34 4993.08 -6799.88 -7.41374 
6369 2 4.93594 1.32977 6.5209 6.02394 -153241 -160714 53.0791 -1127 2088.19 -7066.75 -7.41369 
6370 2 4.2524 0.087646 6.52215 6.02564 -157197 -157014 698.544 -6402.47 1421.84 -6437.51 -7.41367 
6498 2 6.20527 8.72185 6.50651 6.01225 -137212 -178662 2486.95 4952.18 15954 -14273.8 -7.41435 
6499 2 6.939 7.50871 6.50821 6.016 -126680 -188368 -3374.29 6921.09 14725.7 -8054.84 -7.41397 
6500 2 6.25367 6.26768 6.51243 6.01976 -143366 -172078 3436.75 -4222.75 12181.4 -12886.8 -7.41416 
6501 2 6.98774 5.05468 6.51314 6.01784 -137023 -177388 -3124.55 -310.036 8918.25 -9225.58 -7.41381 
6502 2 6.30323 3.81317 6.51638 6.02404 -148950 -166094 2977.8 -9636.62 8333.23 -11671.3 -7.41399 
6503 2 7.03738 2.60019 6.51608 6.01919 -146899 -167329 -1676.25 -4370.69 3896.07 -10429.3 -7.41378 
6504 2 6.35344 1.35832 6.51833 6.02303 -154000 -160060 1592.29 -12458.6 4528.37 -10748.2 -7.41384 
6505 2 7.08744 0.14524 6.51704 6.0207 -156615 -157883 418.829 -6288.48 -421.6 -11879.7 -7.41385 
6633 2 9.04317 8.77674 6.49959 6.01153 -110721 -204721 -8000.64 5581.11 17039.8 -10482.7 -7.41402 
6634 2 8.35669 7.53643 6.50455 6.0163 -130929 -184596 7218.93 -8627.09 15957.9 -18877.6 -7.41466 
6635 2 9.09073 6.32339 6.5053 6.01228 -124497 -190264 -7229.83 -3672.5 11050.9 -12271.4 -7.41388 
6636 2 8.40534 5.08243 6.50944 6.02038 -140025 -174909 6141.15 -15965.9 12163.5 -17344.9 -7.4144 
6637 2 9.13949 3.8694 6.50919 6.01275 -137724 -177127 -4931.85 -9712.02 5596.12 -13922.2 -7.41386 
6638 2 8.45491 2.62795 6.51241 6.02006 -148521 -166497 3827.16 -20486.6 8194.33 -15972.1 -7.41417 
6639 2 9.18892 1.41482 6.51113 6.01413 -150881 -164672 -1641.13 -12859 802.413 -15654.7 -7.41397 
6640 2 8.50492 0.172998 6.51343 6.0195 -156633 -158523 803.973 -22264.8 4037.31 -14860 -7.41399 
828 1 10.8018 8.38327 2.90481 5.99972 -196559 -118192 -12852.5 19046.5 14006.1 -14735.7 -7.41395 
829 1 11.4854 7.14094 2.90436 6.00991 -202588 -112465 14487.3 13883.1 14147.3 -28266.3 -7.41536 
830 1 10.7542 5.92605 2.89916 6.00788 -184488 -130619 -10228.1 27977.6 7619.06 -16239.5 -7.41388 
831 1 11.4378 4.68381 2.89962 6.01608 -187029 -128728 10512.5 20431.4 10735.3 -26095.7 -7.41499 
832 1 10.7055 3.46955 2.89533 6.01371 -173426 -142239 -6229.4 32908.3 1743.25 -17535.6 -7.41395 
833 1 11.3892 2.22749 2.89673 6.01218 -171727 -143826 5455.81 23747.6 6926.41 -23758.9 -7.41462 
834 1 10.6561 1.01371 2.89345 6.01531 -162020 -153025 -1471.28 34666.8 -3444.51 -18789.3 -7.41412 
963 1 13.6326 8.33172 2.91479 6.00215 -218774 -95595.6 22438.2 22586.8 16649.9 -33508.8 -7.41621 
964 1 12.9027 7.11593 2.9091 6.00011 -198171 -116441 -17289.4 39297.6 8900.03 -18243.7 -7.41385 
965 1 13.5864 5.8737 2.90961 6.00957 -201012 -113940 17391.2 31687.6 13887.8 -31726.4 -7.41575 
966 1 12.8551 4.65869 2.90466 6.00828 -183973 -130790 -12023.2 46464.8 2775.34 -20237.6 -7.41397 
967 1 13.5389 3.41666 2.90604 6.00779 -183595 -132563 10837.6 36425.1 10503.7 -29541 -7.41527 
968 1 12.8066 2.2023 2.902 6.01187 -170314 -145196 -5611.5 49632.5 -2839.64 -22024 -7.4142 
969 1 13.4907 0.960565 2.90427 6.00301 -165731 -150437 3428.24 37916.7 6662.9 -27120.6 -7.41481 
1098 1 15.0499 8.30835 2.91948 5.99267 -213543 -100348 -26118.2 51046.9 9556.23 -19095.2 -7.4137 
1099 1 15.7337 7.06619 2.92001 6.00233 -216516 -98037.5 26025.9 43783.3 16602.5 -36040.8 -7.41667 
1100 1 15.0037 5.85031 2.91475 6.00211 -197346 -117599 -19761.1 60974.6 3454.97 -21764.5 -7.41388 
1101 1 15.6876 4.60835 2.91608 6.00299 -197070 -118392 18181.8 51318.7 13888.1 -34237.5 -7.41608 
1102 1 14.9563 3.39323 2.91158 6.00835 -181300 -133698 -11795.8 66585.7 -2368.33 -24113.5 -7.41419 
1103 1 15.6406 2.15157 2.91373 5.99735 -177117 -138632 9020.2 54489.2 10565.3 -31980.8 -7.41549 
1104 1 14.9082 0.93708 2.91012 6.00582 -165029 -150462 -2923.03 68250.1 -7660.24 -26228.1 -7.41461 
1233 1 17.8796 8.26147 2.93004 5.99509 -230466 -81739.6 35924.2 56174.9 18698.6 -38676.9 -7.41766 
1234 1 17.1509 7.04465 2.92479 5.99592 -211999 -102956 -29097.8 75645.5 3695.35 -22042.7 -7.41369 
1235 1 17.8351 5.80282 2.926 5.99703 -211038 -103413 27149.7 66782.1 16816.9 -37365.1 -7.417 
1236 1 17.1049 4.58684 2.92138 6.00438 -194133 -121296 -19887.7 84133.4 -2128.68 -24872.9 -7.41408 
1237 1 17.7894 3.34531 2.92335 5.99281 -190634 -125617 16558.2 72551.5 14180.5 -35465.1 -7.4163 
1238 1 17.0579 2.13009 2.91949 6.00119 -175684 -139865 -9268.79 87910.7 -7556.4 -27385.5 -7.41459 
1239 1 17.743 0.888962 2.92216 5.98693 -168353 -147351 4876.16 74021.2 10923.1 -33066.6 -7.41557 
6768 2 10.461 8.80337 6.49513 6.01192 -115252 -200091 12980.2 -14048.4 19452.7 -24783.4 -7.41533 
6769 2 11.195 7.59025 6.49592 6.00554 -108793 -206556 -13257.3 -8761.62 12629.4 -14747.9 -7.41388 
6770 2 10.5084 6.35002 6.50065 6.01448 -128238 -188081 11190.3 -23730.3 16099.6 -23218.3 -7.41501 
6771 2 11.2425 5.13693 6.50047 6.00509 -125396 -190241 -10028.3 -16332 6959.79 -17034.1 -7.41392 
6772 2 10.5571 3.89606 6.50449 6.01462 -139954 -175698 7829.91 -30008.6 12237.2 -21632.2 -7.41466 
6773 2 11.2911 2.68286 6.50328 6.00633 -141220 -174504 -5438.99 -21443.2 1810.38 -19213.7 -7.41406 
6774 2 10.6064 1.44148 6.50647 6.01553 -151631 -164572 3418.6 -33689.5 8044.4 -20140.4 -7.41437 
6775 2 11.3401 0.228068 6.50423 6.00838 -156939 -159484 -69.1438 -24037 -2779.51 -21437.7 -7.4143 
6903 2 13.3007 8.85489 6.48569 5.99825 -90477.9 -224565 -21198.2 -14389.3 13471.2 -16259.8 -7.41379 
6904 2 12.6128 7.61552 6.49059 6.00748 -112810 -202911 18211.6 -32080.3 19635.5 -28602.9 -7.41578 
6905 2 13.3468 6.40234 6.49051 5.99688 -109917 -205728 -17084.7 -24813.2 7793.73 -19242.8 -7.41387 
6906 2 12.6602 5.16219 6.49497 6.00725 -128212 -187795 13811.1 -41141.8 16257.2 -27043.5 -7.41534 
6907 2 13.3942 3.9489 6.49392 5.99738 -129104 -186603 -11204.7 -31957.1 2448.5 -21985.7 -7.41409 
6908 2 12.7087 2.70811 6.49775 6.00837 -142548 -172870 7969.36 -46908 12296.9 -25391 -7.41491 
6909 2 13.4424 1.49459 6.4957 5.99946 -147613 -168183 -4148.35 -36451.5 -2372.35 -24591 -7.4144 
6910 2 12.7576 0.253275 6.49879 6.01058 -156770 -158767 1278.2 -49939.3 7844.15 -23716.3 -7.41453 
7038 2 14.7186 8.87857 6.48006 5.9999 -95227.2 -219060 26972.3 -41279.9 22333.4 -32904.5 -7.4167 
7039 2 15.4525 7.66524 6.48008 5.989 -92898.4 -221661 -25911.1 -34209.1 8054.42 -20251.6 -7.41373 
7040 2 14.7646 6.42592 6.48454 5.99898 -113323 -201283 21690.7 -52899.8 19781 -31565.8 -7.41618 
7041 2 15.4985 5.21251 6.48371 5.98857 -114300 -200566 -18926.6 -43914.5 2649.77 -23539.9 -7.41401 
7042 2 14.8119 3.97244 6.48782 5.99974 -131314 -184248 14534.7 -61025.7 16393.9 -29960.1 -7.41564 
7043 2 15.5455 2.75881 6.48607 5.98983 -136183 -179931 -10300.4 -50431.1 -2314.13 -26579.4 -7.41442 
7044 2 14.8599 1.5181 6.48966 6.00206 -148567 -167155 6100.34 -66174.9 12338.6 -28169.3 -7.4151 
7045 2 15.593 0.304101 6.48697 5.99305 -157093 -159428 -732.484 -54097 -6713.55 -29398.5 -7.41492 
7173 2 17.5597 8.92543 6.46996 5.98205 -75282.9 -237126 -36008.5 -43641.4 7825.33 -20078.8 -7.4135 
7174 2 16.8704 7.68699 6.47402 5.99059 -97039.4 -215097 31094 -64194.8 22432.2 -34755.1 -7.41713 
7175 2 17.6042 6.47341 6.47344 5.98051 -98922.5 -214746 -28253.5 -56138.8 2482.37 -23757.2 -7.41384 
7176 2 16.9163 5.23414 6.47742 5.99067 -117473 -196322 22903.4 -75211.9 19901.3 -33340.1 -7.4165 
7177 2 17.6499 4.02036 6.47607 5.98089 -122992 -192600 -18378 -65245.9 -2561.04 -27157.9 -7.41431 
7178 2 16.9631 2.78036 6.47979 5.99254 -137999 -177431 12955.1 -83026.1 16518.9 -31613.8 -7.41584 
7179 2 17.6963 1.56624 6.47761 5.9831 -146484 -170138 -7065.54 -70897.8 -7054.57 -30273.2 -7.41491 
7180 2 17.0105 0.325627 6.48087 5.9961 -157253 -158659 1961.94 -87061.6 12383.2 -29624.7 -7.41519 
7308 2 18.9778 8.94531 6.4641 5.98267 -80485.9 -228074 41428.5 -74276.4 24037.9 -36466.2 -7.41815 
7310 2 19.0221 6.49307 6.4673 5.98184 -103176 -208202 32600.2 -88456.3 22524.6 -35285.1 -7.41746 
7312 2 19.0676 4.03986 6.46988 5.98291 -125693 -187555 21531.3 -98867.9 20022.9 -33735.5 -7.41669 
7314 2 19.1138 1.58567 6.47158 5.98599 -147734 -167660 8918.55 -105584 16640.4 -31851.7 -7.41591 
1368 1 19.2968 8.24184 2.93408 5.99055 -225102 -88193.2 -39436.7 88869.6 3540.36 -21249.7 -7.41342 
1369 1 19.9813 7.00019 2.93515 5.99205 -224093 -88588.6 37167 81239.4 19128.7 -38795.6 -7.41798 
1370 1 19.2523 5.78334 2.93064 6.00082 -207035 -107917 -29430.7 100515 -2123.69 -24386.6 -7.41386 
1371 1 19.9371 4.54197 2.93238 5.98852 -203561 -111647 25609.6 89607.1 17290.4 -37329.3 -7.41719 
1372 1 19.2067 3.32594 2.92855 5.99766 -188577 -127890 -17492.4 107105 -7556.26 -27186 -7.41445 
1373 1 19.8919 2.08495 2.93092 5.98288 -182019 -134483 12427.3 93602.3 14729.4 -35271.4 -7.41635 
1374 1 19.1604 0.869612 2.92784 5.9908 -168130 -147187 -4406.89 108655 -12451 -29666.2 -7.41514 
1503 1 22.1262 8.20037 2.94311 5.98766 -235327 -74901 47576.5 93087.2 20763.6 -38688.4 -7.41896 
1504 1 21.3985 6.98262 2.93885 5.99608 -219331 -94891.4 -39769.2 114034 -2300.31 -22933.5 -7.41357 
1505 1 22.0836 5.74147 2.94034 5.9837 -215797 -97378.6 35572.8 105052 19763.7 -37634.6 -7.41812 
1506 1 21.3543 4.52459 2.9367 5.99518 -200224 -114536 -27041.5 123698 -7626.45 -25858.3 -7.4142 
1507 1 22.0399 3.28378 2.93877 5.9795 -194266 -120543 21449.3 111445 17963.1 -35977.6 -7.4172 
1508 1 21.3093 2.06769 2.93582 5.98704 -180569 -135377 -12619 128281 -12529.2 -28471.1 -7.41497 
1509 1 21.9954 0.827331 2.93839 5.97346 -172072 -144442 5995.08 113129 15424 -33760 -7.41626 
1638 1 23.5434 8.18454 2.94578 5.99168 -229434 -82734.2 -50228.1 124879 -2564.59 -20851.1 -7.41322 
1639 1 24.229 6.94365 2.94701 5.97961 -225720 -84958 45821 117904 21558.7 -36634.8 -7.41904 
1640 1 23.5008 5.72595 2.94361 5.99231 -211514 -102730 -37253.9 137626 -7713.39 -23742.4 -7.41387 
1641 1 24.1867 4.48537 2.94539 5.97583 -206471 -107562 31313.3 127468 20521.8 -35358.1 -7.41808 
1642 1 23.4571 3.26849 2.94267 5.98413 -191929 -123077 -22091.4 145099 -12565.6 -26357.2 -7.41468 
1643 1 24.1435 2.0283 2.94492 5.96994 -184306 -130658 14967.1 131941 18700.4 -33529.6 -7.41703 
1644 1 23.4128 0.812148 2.94287 5.97664 -171548 -143575 -5573.21 147221 -16816 -28690.2 -7.41561 
1773 1 26.3732 8.14833 2.95246 5.97661 -231888 -74285.6 55846.5 128100 22704.2 -34653.9 -7.41993 
1774 1 25.6461 6.92987 2.94925 5.98901 -220096 -92045.5 -47504.7 148858 -7748.28 -21178.6 -7.41349 
1775 1 26.3325 5.68955 2.95077 5.9719 -215336 -95999.8 41423.5 140890 22398.3 -33696.4 -7.41894 
1776 1 25.6039 4.47192 2.94825 5.98239 -202935 -111976 -32164 159414 -12516.3 -23677 -7.41432 
1777 1 26.2906 3.23195 2.95023 5.96811 -195885 -118372 24756.5 148367 21272.3 -32238.9 -7.41785 
1778 1 25.5608 2.01506 2.94839 5.97361 -182970 -131802 -14962.1 164237 -16778.6 -25935.9 -7.41528 
1779 1 26.2482 0.775515 2.95069 5.96202 -174095 -140632 6650.37 150327 19338.9 -30321.8 -7.41672 
1908 1 27.7903 8.13607 2.95379 5.98661 -225154 -83620.2 -57354.2 156179 -7682.6 -18423.7 -7.4131 
1909 1 28.4772 6.89606 2.95507 5.96931 -220685 -86454.2 51326.1 150810 23639.8 -31294.1 -7.41975 
1910 1 27.7496 5.67774 2.95266 5.98091 -210134 -101870 -42275.3 169687 -12333.8 -20737.7 -7.41391 
1911 1 28.4368 4.43802 2.9544 5.96554 -204136 -106812 34812.9 161088 23165.5 -30159.7 -7.41865 
1912 1 27.7079 3.22044 2.95271 5.97197 -192982 -120862 -24944.2 178001 -16605.6 -22846.4 -7.41488 
1913 1 28.3955 1.98108 2.95479 5.96063 -185694 -128191 16411.2 166267 21880.1 -28611.9 -7.41748 
1914 1 27.6655 0.764159 2.95376 5.96437 -173865 -139927 -6178.65 180240 -20211.7 -24749.9 -7.41597 
7309 2 19.7113 7.73151 6.46376 5.97376 -83655.3 -228084 -38605.2 -67775 2076.47 -22813.9 -7.41356 
7311 2 19.7555 5.27909 6.46636 5.97282 -108799 -204511 -27925 -79477 -2984.28 -26413.8 -7.41408 
7313 2 19.8007 2.82558 6.46827 5.97403 -134265 -181320 -15290.9 -87860.3 -7571.42 -29725.7 -7.41477 
7315 2 19.8463 0.370937 6.46925 5.97728 -158589 -157838 -1524.22 -92407.6 -11497.9 -32705.8 -7.41553 
7443 2 21.8198 8.98686 6.45506 5.96853 -69723.6 -238455 -49302.9 -77875.8 1571.26 -21044.8 -7.41321 
7444 2 21.1293 7.74921 6.45795 5.97386 -88985.8 -218192 43022.6 -99526.4 24176.8 -35832.9 -7.41845 
7445 2 21.8625 6.53499 6.45741 5.96642 -95462.4 -215446 -38316.8 -92581.9 -3432.07 -24649.3 -7.41378 
7446 2 21.1733 5.29653 6.4605 5.97402 -112790 -197341 31319.7 -113211 22651.1 -34481.6 -7.41761 
7447 2 21.9063 4.08205 6.45946 5.96647 -121376 -192053 -24890.6 -103760 -8101.82 -28006.9 -7.4145 
7448 2 21.2183 2.84288 6.46256 5.97625 -136736 -177077 17561.5 -122651 20152 -32785.6 -7.41672 
7449 2 21.9507 1.62799 6.46094 5.9686 -147226 -168126 -9793.29 -110392 -12138.6 -31072.9 -7.41533 
7450 2 21.2638 0.38818 6.46387 5.98057 -159142 -156073 2588.48 -127518 16751.4 -30779.4 -7.41582 
7578 2 23.2379 9.00273 6.44968 5.96752 -76147.7 -225953 53556.4 -108351 24941.5 -35186.8 -7.41942 
7579 2 23.9707 7.7882 6.44948 5.96232 -82887.4 -223856 -48893.7 -103463 -3789.4 -22250.2 -7.4134 
7580 2 23.2803 6.55048 6.45198 5.96645 -100529 -205712 41710.9 -124710 24380.6 -34014.5 -7.41855 
7581 2 24.0131 5.33576 6.45147 5.96083 -109072 -201134 -35225.9 -117035 -8496.23 -25494.8 -7.41414 
7582 2 23.3239 4.09731 6.45418 5.96748 -124965 -185529 27358.2 -136703 22800.9 -32522.5 -7.4176 
7583 2 24.0563 2.88225 6.45325 5.96161 -136014 -177990 -19380.9 -126549 -12671.3 -28507.9 -7.41501 
7584 2 23.3682 1.64314 6.456 5.97091 -149122 -164553 11264.5 -144498 20260.3 -30742.3 -7.4166 
7585 2 24.0999 0.427569 6.45455 5.96481 -161307 -154595 -2290.98 -131859 -16089.4 -31214.7 -7.416 
7713 2 26.0802 9.03904 6.44268 5.95995 -73380 -229384 -59125.1 -111219 -3997.2 -19564.2 -7.41301 
7714 2 25.3887 7.80198 6.44453 5.96056 -89273.6 -211669 52125.3 -132781 25301.6 -32592 -7.41948 
7715 2 26.1211 6.58698 6.44446 5.95707 -98752.4 -208081 -45677.5 -127654 -8666.57 -22571.7 -7.41373 
7716 2 25.4308 5.3492 6.44667 5.96032 -114171 -192007 37697.6 -147678 24612.1 -31283.8 -7.4185 
7717 2 26.1629 4.13389 6.44635 5.9566 -125267 -185898 -29661 -140083 -12961.2 -25402.3 -7.41461 
7718 2 25.4739 2.89545 6.44877 5.96254 -139297 -172114 21061.6 -158475 22932.5 -29735.8 -7.41743 
7719 2 26.2055 1.67973 6.44807 5.95833 -150837 -163644 -11873.3 -147635 -16566.8 -28010.4 -7.41564 
7720 2 25.5173 0.440713 6.45053 5.96696 -162028 -152253 3153.57 -164203 20297.4 -27951.4 -7.41634 
7848 2 27.4982 9.05135 6.43817 5.95653 -80858.3 -214571 62128.5 -137947 25568.3 -30488.9 -7.42035 
7849 2 28.2301 7.83599 6.43847 5.95509 -90279.3 -211945 -55800.1 -135596 -8599.75 -19532.9 -7.41331 
7850 2 27.5389 6.5988 6.44012 5.955 -105290 -196237 48042.7 -155516 25688.8 -29335.4 -7.41936 
7851 2 28.2707 5.38321 6.44031 5.95348 -116209 -191452 -40068.9 -150207 -12955.8 -22096.9 -7.41417 
7852 2 27.5806 4.14538 6.44233 5.95586 -129556 -177570 31399.1 -168899 24817.1 -27992.2 -7.41826 
7853 2 28.312 2.92947 6.44227 5.95367 -140369 -170688 -22137.5 -160606 -16755.5 -24499.4 -7.41518 
7854 2 27.6229 1.69107 6.44448 5.95892 -152845 -158988 12987.3 -177084 22976.4 -26464.4 -7.41711 
7855 2 28.3538 0.474722 6.444 5.95598 -163874 -149822 -2944.16 -166117 -19756.7 -26696.3 -7.4163 
2043 1 30.6212 8.10455 2.9586 5.96774 -223309 -79195.6 60718.4 157296 24323.3 -28416.4 -7.42052 
2044 1 29.8944 6.88562 2.95618 5.97874 -214463 -94541.4 -52046.9 176709 -12005.2 -17741 -7.4135 
2045 1 30.5821 5.64618 2.95772 5.96323 -209984 -98225.7 44710.5 170776 24455.4 -27533.5 -7.41942 
2046 1 29.854 4.42798 2.95605 5.97108 -200022 -111707 -35020.5 187573 -16268.2 -19656.6 -7.41444 
2047 1 30.542 3.18883 2.95794 5.95867 -193708 -117336 26484.8 178734 23775.4 -26306.9 -7.41823 
2048 1 29.8128 1.97129 2.95698 5.96279 -183831 -128955 -16120.2 193074 -19972.7 -21406.7 -7.41552 
2049 1 30.5012 0.732505 2.95905 5.95395 -175823 -136916 6821.6 181080 22264.7 -24763.1 -7.41701 
2178 1 32.0383 8.09525 2.9591 5.97752 -216083 -89311.3 -61241.8 180149 -11530.5 -14838.3 -7.4131 
2179 1 32.7265 6.85612 2.96048 5.96163 -212149 -91796.7 54179.1 177108 25220.2 -24558.7 -7.42016 
2180 1 31.9992 5.63739 2.95872 5.97084 -204426 -104977 -44841.2 194126 -15761.4 -16526.5 -7.41399 
2181 1 32.6876 4.39849 2.96043 5.95757 -199535 -108935 36470.2 188132 25097.4 -23604 -7.41897 
2182 1 31.9592 3.18038 2.95943 5.96195 -190635 -120486 -26249.3 202625 -19553.8 -18090.7 -7.41504 
2183 1 32.6479 1.94176 2.96134 5.95197 -184721 -126552 16946.9 193661 24156.4 -22378 -7.41772 
2184 1 31.9185 0.724235 2.96102 5.95502 -175204 -136099 -6247.21 205228 -22648.4 -19521.5 -7.41621 
2313 1 34.8703 8.06759 2.96296 5.9613 -211094 -87753.1 63042.4 180296 25548.1 -21374.8 -7.42084 
2314 1 34.1437 6.84838 2.96099 5.97044 -205322 -99993.3 -54194.3 197276 -15073.1 -13557.3 -7.41355 
2315 1 34.8326 5.60974 2.96257 5.95655 -202289 -102606 46111.4 194072 25926.8 -20644 -7.41967 
2316 1 34.1048 4.39117 2.96137 5.96178 -194890 -113882 -36216.7 208711 -18939.1 -14915.7 -7.41455 
2317 1 34.7939 3.15274 2.96314 5.95143 -190467 -118516 27056.3 202313 25508.3 -19696.4 -7.41842 
2318 1 34.0652 1.93471 2.96269 5.95432 -182886 -128089 -16454.8 214228 -22207.9 -16169.2 -7.4157 
2319 1 34.7546 0.696566 2.96449 5.94723 -176488 -134049 6666.38 205380 24256.5 -18557.6 -7.41715 
2448 1 36.2875 8.06063 2.96313 5.97002 -203098 -98204.4 -62956.3 197077 -14211.8 -10780.7 -7.41314 
2449 1 36.977 6.82229 2.96459 5.95669 -201524 -99455.6 55247.9 196342 26359 -17532.6 -7.42034 
2450 1 36.2498 5.60332 2.9631 5.96227 -196535 -109774 -45813.5 211017 -18121.8 -11932.7 -7.41408 
2451 1 36.9392 4.3651 2.96474 5.95073 -193881 -112356 36919.4 207757 26409.7 -16815.2 -7.41911 
2452 1 36.2111 3.14665 2.96403 5.95431 -186929 -121361 -26598.8 219577 -21554.5 -13005 -7.41517 
2453 1 36.9008 1.90864 2.9657 5.94662 -182906 -125857 16890.4 213366 25660.9 -15946.5 -7.41782 
2454 1 36.1719 0.690636 2.96571 5.94843 -175989 -133561 -6059.22 222545 -24283.2 -13996.5 -7.41638 
7983 2 30.3401 9.08313 6.4335 5.95505 -84168.9 -212987 -65295.5 -140284 -8322.26 -16573.7 -7.41291 
7984 2 29.648 7.84646 6.43458 5.95152 -97753.6 -197956 58009.5 -160064 26164.1 -26910.2 -7.42018 
7985 2 30.3793 6.63055 6.43519 5.95204 -108088 -194712 -50202.3 -157484 -12670.8 -18817.6 -7.41372 
7986 2 29.6884 5.39326 6.43673 5.951 -121830 -181155 41779 -175725 26025.2 -25735 -7.41909 
7987 2 30.4195 4.17711 6.43719 5.95077 -131649 -175948 -32588.9 -170357 -16627.4 -20955.2 -7.4147 
7988 2 29.7296 2.93925 6.43907 5.95259 -143983 -164226 23366.2 -186791 24925.5 -24427.3 -7.4179 
7989 2 30.4603 1.72276 6.43921 5.95103 -155131 -156804 -13230.1 -178215 -19876.7 -22957.4 -7.41581 
7990 2 29.7712 0.484417 6.44127 5.9565 -164749 -146885 3700.64 -192672 22895.2 -22988.6 -7.4167 
8118 2 31.7581 9.09251 6.43003 5.94983 -92747.5 -197255 67320.2 -161786 26155.6 -24178.3 -7.42095 
8119 2 32.4889 7.87623 6.431 5.9518 -102403 -195453 -59784.7 -162115 -12138.6 -15716.1 -7.41329 
8120 2 31.7971 6.63939 6.432 5.94787 -115144 -182569 51819.6 -179841 26668.1 -23147.5 -7.41987 
8121 2 32.5279 5.42297 6.4329 5.94872 -124725 -178766 -42834.4 -177069 -16194.6 -17556.1 -7.41421 
8122 2 31.8371 4.18559 6.43435 5.94794 -136472 -167404 33834.4 -193119 26245.1 -22028.8 -7.41868 
8123 2 32.5677 2.96891 6.43502 5.94759 -146845 -161811 -23772.2 -187533 -19678.5 -19306.2 -7.41529 
8124 2 31.8777 1.73106 6.43679 5.95046 -157505 -151838 14135.8 -201568 24901.8 -20826.4 -7.41745 
8125 2 32.6078 0.513988 6.43705 5.94909 -167034 -144300 -3484.39 -193020 -22354.7 -20932 -7.41647 
8253 2 34.5992 9.12056 6.42774 5.95191 -99152.4 -193677 -68652.6 -164002 -11411.2 -12867.5 -7.41289 
8254 2 33.9067 7.8841 6.4282 5.94636 -110381 -181570 61277.8 -181228 26843.7 -20356.1 -7.4206 
8255 2 34.637 6.66736 6.42946 5.94821 -119209 -179411 -52621.9 -181370 -15484.8 -14402.8 -7.41374 
8256 2 33.9455 5.43038 6.43043 5.94502 -130974 -168445 44028 -196768 27029.5 -19403.7 -7.41943 
8257 2 34.6758 4.21346 6.43152 5.94587 -140411 -164871 -34187 -194251 -19159 -15872 -7.41476 
8258 2 33.9852 2.97603 6.43289 5.94604 -150659 -155210 24701.8 -207971 26312.4 -18401 -7.4182 
8259 2 34.7151 1.75883 6.43364 5.94562 -159293 -149203 -14108.2 -201950 -22134 -17267.1 -7.41591 
8260 2 34.0251 0.521009 6.4353 5.94913 -167744 -141382 4204.36 -213404 24691.5 -17333 -7.41693 
8388 2 36.0171 9.12768 6.42532 5.94649 -108031 -177803 70022 -179958 26631.1 -17446.2 -7.42129 
8389 2 36.7468 7.91057 6.4269 5.94884 -116763 -177655 -61791.7 -183194 -14554 -11527.2 -7.41328 
8390 2 36.0547 6.67391 6.42734 5.94376 -126759 -167451 53721.4 -198042 27361 -16634.8 -7.42015 
8391 2 36.7846 5.45671 6.42879 5.94558 -135895 -165289 -44242.6 -198113 -18357 -12716.7 -7.41424 
8392 2 36.0933 4.21964 6.4297 5.94322 -145430 -156248 35091.6 -211189 27205.5 -15796.8 -7.41893 
8393 2 36.8231 3.00226 6.43082 5.94379 -153209 -152261 -24699.5 -208323 -21605.6 -13861.4 -7.41534 
8394 2 36.1325 1.7648 6.43211 5.94478 -161652 -144451 14850.2 -219388 26176.1 -14926.1 -7.41764 
8395 2 36.8619 0.547152 6.43274 5.94422 -169746 -139299 -3998.23 -213737 -24070.9 -14948.5 -7.41656 
8524 2 38.1645 7.91651 6.42512 5.9441 -125352 -163871 62805.9 -196410 27305.5 -13764.3 -7.42083 
8526 2 38.2021 5.46217 6.42725 5.94206 -142421 -155013 45081.1 -211958 27666 -13071.4 -7.41963 
8528 2 38.2405 3.00741 6.42952 5.94207 -157047 -145864 25410.7 -222551 27178 -12367 -7.41835 
8530 2 38.2792 0.552197 6.43167 5.94423 -170664 -137200 4607.21 -227812 25841.5 -11639 -7.41707 
2583 1 39.1209 8.03574 2.96669 5.95654 -197424 -98625.6 63851.9 195777 26442.2 -14332.3 -7.42098 
2584 1 38.3942 6.81649 2.96486 5.96301 -194288 -108263 -54931.5 210160 -17114.7 -9158.62 -7.41362 
2585 1 39.0841 5.57852 2.96638 5.95058 -192731 -109380 46398.3 209672 26939 -13811.3 -7.41978 
2586 1 38.3565 4.35974 2.9653 5.95495 -189096 -118093 -36480.8 221764 -20691.6 -10045.1 -7.41465 
2587 1 39.0464 3.1219 2.96684 5.94629 -186305 -120510 26968.1 218677 26649.8 -13170.3 -7.4185 
2588 1 38.318 1.90353 2.96652 5.9485 -180861 -127369 -16355.2 227691 -23654.7 -10873.6 -7.41581 
2589 1 39.0082 0.665855 2.96794 5.94338 -176724 -131571 6289.75 221898 25542.1 -12430.6 -7.4172 
2718 1 40.5382 8.03038 2.96674 5.96332 -189186 -109509 -63502.8 206903 -15918.7 -6609.8 -7.4132 
2719 1 41.2286 6.79269 2.96815 5.95044 -188968 -108974 55429.4 209216 27137.9 -10719.7 -7.42042 
2720 1 40.5013 5.57368 2.96669 5.95559 -186529 -116884 -45982.8 221144 -19608.9 -7304.65 -7.41415 
2721 1 41.1917 4.33602 2.96808 5.94587 -186206 -117962 36776.7 220713 27274.5 -10286.7 -7.41916 
2722 1 40.4636 3.11741 2.96736 5.94904 -182853 -124710 -26495.8 229943 -22798.2 -7955.59 -7.41526 
2723 1 41.154 1.87985 2.96864 5.94326 -180739 -126847 16533.3 227239 26615.4 -9769.04 -7.41787 
2724 1 40.4254 0.661534 2.96865 5.94422 -176186 -131706 -5769.96 233289 -25272.9 -8568.59 -7.41648 
2853 1 43.3729 8.00733 2.97012 5.95105 -181600 -111195 63946.4 205653 27055.5 -7559.69 -7.42103 
2854 1 42.6459 6.78819 2.96826 5.95586 -181661 -118591 -55015 217645 -18302.4 -4776.95 -7.41368 
2855 1 43.3367 5.55075 2.96953 5.94581 -182548 -117737 46231.1 220268 27586.3 -7309.38 -7.41981 
2856 1 42.6089 4.33197 2.96837 5.9496 -181017 -123772 -36340.4 229424 -21694.7 -5252.96 -7.41472 
2857 1 43.2995 3.09455 2.9695 5.94285 -180765 -124414 26621.3 229303 27339.9 -6996.92 -7.41852 
2858 1 42.5713 1.87604 2.96907 5.94471 -178516 -128832 -16083 235603 -24463.7 -5698.98 -7.41589 
2859 1 43.2619 0.638684 2.96996 5.94186 -176817 -130537 5843.04 233096 26290.2 -6631.15 -7.41722 
2988 1 44.7903 8.00296 2.97005 5.95645 -172870 -122251 -63526.2 211239 -16787.2 -2451.83 -7.41324 
2989 1 45.4815 6.76577 2.9712 5.9463 -175133 -120236 55265.1 216121 27624.7 -4251.73 -7.42043 
2990 1 44.754 5.54691 2.96962 5.94996 -176176 -125842 -45812.1 225639 -20348.3 -2747.52 -7.4142 
2991 1 45.4449 4.30965 2.97061 5.94286 -177785 -124201 36451.6 228616 27771.6 -4115.48 -7.41916 
2992 1 44.7168 3.09103 2.96971 5.9453 -176886 -128032 -26210 234852 -23398.4 -3025.43 -7.41531 
2993 1 45.4076 1.85375 2.97044 5.94144 -177424 -128369 16117.2 235025 27130.1 -3939.4 -7.41786 
2994 1 44.6792 0.635304 2.97026 5.9421 -176020 -131036 -5429.99 238395 -25734.9 -3280.85 -7.41654 
3123 1 47.6264 7.98075 2.97304 5.9471 -165161 -125189 63813.1 209632 27407.4 -1093.59 -7.42102 
3124 1 46.8989 6.76191 2.9711 5.95062 -167459 -130139 -54832.5 218912 -18761.7 -436.432 -7.41372 
3125 1 47.5902 5.52484 2.97196 5.94308 -171260 -127223 45955.1 224393 27934.1 -1129.22 -7.41979 