ITEM: TIMESTEP
100
ITEM: NUMBER OF ATOMS
12152
ITEM: BOX BOUNDS pp pp pp
0.0000000000000000e+00 9.5721004899999997e+01
0.0000000000000000e+00 1.6579364400000000e+02
0.0000000000000000e+00 1.5000000000000000e+01
ITEM: ATOMS id type x y z c_csym c_2[1] c_2[2] c_2[3] c_2[4] c_2[5] c_2[6] c_3 
152 1 0.883706 8.57892 2.88708 6.01756 -167052 -147269 -3305.43 -17841.6 12458.7 -3114.22 -7.41381 
153 1 0.150761 7.36538 2.8838 6.02405 -152712 -161395 2856.71 -12514.3 14315.9 -1396.68 -7.41399 
154 1 0.834801 6.12347 2.88112 6.0226 -163068 -150343 -799.367 -8786.25 8555.51 -2602.76 -7.41372 
155 1 0.101198 4.91027 2.87885 6.02668 -153840 -160109 1316.39 -5171.08 8403.48 -933.495 -7.41374 
156 1 0.784793 3.66814 2.87724 6.02589 -160402 -153322 405.534 -3208.84 4903.07 -1962.87 -7.41364 
157 1 0.0507981 2.45515 2.87598 6.02849 -155252 -158525 815.012 -1237.07 3712.49 -477.012 -7.41361 
158 1 0.734157 1.21292 2.87536 6.0289 -158115 -155649 759.719 -632.549 1550.22 -1298.15 -7.41359 
159 1 5.94616e-06 9.66407e-06 2.87504 6.03017 -156792 -156586 776.044 11.1657 0.890689 0.612864 -7.41357 
288 1 2.30123 8.54969 2.88781 6.01943 -161243 -153477 3269.33 -14733.9 17298.3 -4118.29 -7.41417 
289 1 2.98532 7.30774 2.88511 6.01973 -172389 -141770 -741.122 -12295 10559.3 -7660.68 -7.41386 
290 1 2.25231 6.0942 2.8818 6.02296 -158662 -155005 1289.93 -5732.39 10804.2 -3752.53 -7.41384 
291 1 2.93593 4.85204 2.88015 6.02349 -166144 -147364 631.192 -5132.07 6741.43 -6401.13 -7.41375 
292 1 2.20228 3.63884 2.87788 6.02559 -157641 -156034 600.355 -250.923 5438.24 -3395.58 -7.41367 
293 1 2.88565 2.39659 2.87724 6.02699 -161256 -152477 949.292 -1275.42 3174.68 -5154.53 -7.41366 
294 1 2.15164 1.1836 2.87598 6.02751 -157134 -156605 634.644 2042.05 1227.56 -3117.72 -7.4136 
423 1 5.13493 8.49289 2.89114 6.01701 -184292 -130159 710.384 -14690.2 12965.8 -13504.3 -7.41414 
424 1 4.40279 7.27883 2.88679 6.0169 -167387 -147237 109.666 -4881.15 13526.7 -6618.36 -7.41398 
425 1 5.08646 6.03664 2.88513 6.0207 -175508 -138888 1939.21 -5624.97 9178.11 -11776.1 -7.414 
426 1 4.3534 4.82307 2.88178 6.02134 -162707 -150983 -506.918 2162.24 7486.5 -6455.44 -7.41376 
427 1 5.0368 3.58079 2.88114 6.02449 -167336 -146556 1900.81 -273.067 5408.92 -9981.32 -7.41384 
428 1 4.30313 2.36757 2.87884 6.02433 -159423 -154113 -125.809 5883.31 2562.51 -6353.16 -7.41368 
429 1 4.98648 1.12532 2.87917 6.02542 -160071 -153570 1079.04 1938.73 1743.67 -8362.87 -7.41373 
558 1 6.55237 8.46458 2.89377 6.00948 -178541 -135906 -2640.5 -2970.37 16323.1 -9341.17 -7.4141 
559 1 7.23609 7.22234 2.89216 6.01686 -187368 -127090 4842.4 -4925.14 11952.8 -17924.6 -7.41439 
560 1 6.5039 6.00824 2.88776 6.01529 -171403 -143283 -2953.94 6044.65 9809.46 -9618.3 -7.41386 
561 1 7.18734 4.76594 2.88715 6.02171 -176663 -138104 4169.29 2339.74 8188.28 -15799.6 -7.41419 
562 1 6.45425 3.55233 2.88376 6.01994 -164849 -149075 -1980.46 11294.2 4166.11 -9829.48 -7.41376 
563 1 7.13763 2.31006 2.88413 6.02284 -166265 -147984 2478.74 5839.63 4361.45 -13717.8 -7.41399 
564 1 6.40395 1.09679 2.88178 6.02222 -159232 -154675 -302.256 13330.9 -522.608 -10167.8 -7.41377 
693 1 9.38457 8.40964 2.90095 6.00984 -202376 -112125 9696.64 -1804.68 14671.2 -24291.7 -7.41497 
694 1 8.65349 7.19481 2.89567 6.00769 -182653 -131688 -7094.02 11763.8 12128.3 -12520.1 -7.41393 
695 1 9.33699 5.95248 2.89513 6.01636 -188528 -126239 8216.59 7083.83 11233.8 -22170.4 -7.41469 
696 1 8.60475 4.73831 2.89073 6.01447 -173433 -141046 -5338.86 18694.2 5950.92 -13286.9 -7.41384 
697 1 9.28819 3.49604 2.89116 6.0197 -175464 -139291 5427.35 12249.1 7457.41 -19874.9 -7.4144 
698 1 8.55508 2.28235 2.88776 6.01815 -164558 -149558 -2560.17 22288.5 571.367 -14020.4 -7.41386 
699 1 9.23868 1.04025 2.88915 6.01619 -162737 -152074 1882.22 14013.1 3486.25 -17659.4 -7.41415 
6096 2 0.533759 8.60737 6.51285 6.02176 -149595 -164864 4171.51 18018.7 17777.4 808.847 -7.41418 
6097 2 0.582662 6.15239 6.51886 6.02452 -151266 -162488 1899.16 8827.31 11348.7 307.073 -7.41384 
6098 2 0.632695 3.69735 6.52275 6.02697 -153552 -160403 947.328 3226.49 6050.53 -172.143 -7.41366 
6099 2 0.683318 1.24226 6.52464 6.02868 -155868 -157939 759.652 757.238 1899.49 -693.347 -7.41358 
6100 2 -5.9644e-06 7.35349e-06 6.52496 6.03012 -156781 -156547 776.034 -56.719 0.380934 0.205534 -7.41358 
6228 2 1.95134 8.63665 6.51224 6.01529 -155319 -158857 -2952.57 15288.7 13234.3 -3687.31 -7.41386 
6229 2 2.68466 7.42331 6.51487 6.02088 -143024 -171259 1939.96 12906.9 14787.9 -2061.2 -7.41399 
6230 2 2.00021 6.18169 6.51822 6.02129 -155563 -158018 -507.087 6056.75 9334.23 -3254.8 -7.41376 
6231 2 2.73405 4.96861 6.51985 6.02357 -147498 -165789 631.314 5614.91 8913.78 -2638.71 -7.41375 
6232 2 2.0502 3.72666 6.52212 6.02577 -156280 -157394 600.279 749.998 5659.64 -3014.03 -7.41367 
6233 2 2.7843 2.51371 6.52276 6.02595 -152174 -161291 406.825 1705.43 4151.62 -3263.93 -7.41363 
6234 2 2.10081 1.27156 6.52402 6.02861 -156722 -156936 815.544 -1980.94 2269.86 -2977.01 -7.41361 
6235 2 2.83496 0.058646 6.52371 6.02752 -156650 -156774 698.014 266.198 293.641 -4084.62 -7.41362 
6363 2 4.78759 8.69343 6.50885 6.01696 -130887 -183337 711.58 16044.6 18178.4 -4477.71 -7.41414 
6364 2 4.10226 7.45234 6.51321 6.01693 -147866 -166378 110.003 6125.41 12495.2 -8404.39 -7.41398 
6365 2 4.83606 6.23923 6.51489 6.01992 -138483 -175259 -741.244 6978.99 11913.1 -5314.84 -7.41386 
6366 2 4.1516 4.99766 6.5182 6.02306 -151027 -163014 1290.47 -1039.23 8651.36 -7480.94 -7.41384 
6367 2 4.88568 3.78469 6.51888 6.02249 -145981 -167514 -798.069 1579.32 6531.44 -6107.56 -7.41372 
6368 2 4.20181 2.54278 6.52115 6.02662 -153830 -159712 1318.19 -4973.68 5009.95 -6811.82 -7.41373 
6369 2 4.93597 1.32984 6.52083 6.02391 -153111 -160705 -3.58181 -1381.31 2086.57 -7072.51 -7.41369 
6370 2 4.25245 0.0877051 6.52212 6.0256 -156645 -157208 670.199 -6577.62 1433.49 -6443.88 -7.41367 
6498 2 6.20528 8.72194 6.50619 6.01218 -136120 -178634 2263.49 5049.47 15981.8 -14310.6 -7.41435 
6499 2 6.93902 7.50879 6.50791 6.01606 -126098 -188131 -3601.07 7110.78 14757.3 -8067.03 -7.41396 
6500 2 6.25367 6.26777 6.51219 6.01975 -142461 -171934 3268.33 -4005.57 12213.9 -12921 -7.41417 
6501 2 6.98774 5.05476 6.51292 6.01776 -136840 -177504 -3306.87 -302.301 8925.98 -9231.8 -7.41381 
6502 2 6.30323 3.81326 6.5162 6.02401 -148457 -165899 2857.28 -9805.02 8367.18 -11699.9 -7.41399 
6503 2 7.03738 2.60028 6.5159 6.01912 -146703 -167296 -1819.08 -4660.78 3893.09 -10439.4 -7.41378 
6504 2 6.35347 1.3584 6.5182 6.02298 -153868 -160107 1495.4 -12780.4 4554.45 -10769.9 -7.41385 
6505 2 7.0875 0.145338 6.51688 6.02038 -156517 -157744 299.163 -6603.4 -429.449 -11903.5 -7.41385 
6633 2 9.04322 8.77682 6.49921 6.01154 -110355 -204649 -8268.72 5797.59 17070.1 -10510.7 -7.41402 
6634 2 8.35672 7.53652 6.50421 6.01624 -130511 -184399 7005.88 -8422.87 16005 -18921.6 -7.41466 
6635 2 9.09075 6.32346 6.50499 6.01239 -124134 -190424 -7479.87 -3623.51 11052.4 -12289.7 -7.41388 
6636 2 8.40534 5.08252 6.50917 6.02036 -139817 -175078 5956.49 -16065.9 12213.7 -17390.5 -7.41441 
6637 2 9.13949 3.86949 6.50892 6.01264 -137346 -177143 -5155.33 -9781.63 5582.36 -13939.8 -7.41387 
6638 2 8.45492 2.62804 6.51218 6.02007 -148143 -166015 3662.39 -20889.7 8235.2 -16017.2 -7.41417 
6639 2 9.18896 1.41491 6.51088 6.01392 -149966 -164184 -1840 -13326.2 783.202 -15679.9 -7.41396 
6640 2 8.50498 0.173073 6.51321 6.01936 -156421 -157761 637.495 -22907.2 4061.31 -14895.2 -7.41399 
828 1 10.8019 8.38331 2.90506 5.99945 -197170 -117654 -13127.1 19138.6 14050.7 -14706.7 -7.41394 
829 1 11.4855 7.14097 2.90465 6.00951 -203288 -111488 14269.8 14198 14162.8 -28352.3 -7.41538 
830 1 10.7544 5.92605 2.89948 6.00744 -184670 -129606 -10496 28477.5 7650.19 -16233.7 -7.41387 
831 1 11.4379 4.68378 2.89998 6.01579 -187572 -127574 10295.1 21136.5 10744.1 -26166.8 -7.415 
832 1 10.7056 3.4695 2.89567 6.01342 -173207 -141424 -6482.13 33695 1752.21 -17559.4 -7.41394 
833 1 11.3893 2.22742 2.89709 6.01173 -171754 -143294 5227.05 24484.6 6941.24 -23810.3 -7.41463 
834 1 10.6561 1.01364 2.89377 6.01519 -161923 -152822 -1705.54 35563.4 -3463.87 -18841.4 -7.41411 
963 1 13.6326 8.3318 2.91498 6.00189 -219123 -94927.4 22243.1 22572.3 16639 -33582.7 -7.41622 
964 1 12.9028 7.11599 2.90939 5.99995 -198843 -115825 -17539.7 39473.5 8941.08 -18230 -7.41383 
965 1 13.5864 5.87375 2.90997 6.00928 -201729 -113355 17178.8 31985.6 13868.7 -31789.1 -7.41577 
966 1 12.8552 4.65872 2.90505 6.00828 -184585 -130271 -12295 47004 2797.33 -20265 -7.41395 
967 1 13.539 3.41668 2.90647 6.00757 -183888 -131844 10602.8 37109.6 10498.4 -29588.2 -7.41528 
968 1 12.8067 2.2023 2.9024 6.01171 -170341 -144714 -5882.07 50487.3 -2843.39 -22089.1 -7.41419 
969 1 13.4908 0.960565 2.90465 6.00267 -165720 -149964 3171.46 38784.8 6682.62 -27154.9 -7.41481 
1098 1 15.0499 8.30844 2.91968 5.99264 -213883 -100129 -26272.4 50920.9 9618.07 -19071.4 -7.41369 
1099 1 15.7337 7.06628 2.92035 6.0022 -216277 -97637 25844.3 43753.1 16539.8 -36075.1 -7.41667 
1100 1 15.0037 5.85039 2.91516 6.00218 -198024 -117153 -19974 61174.9 3496.66 -21788.9 -7.41387 
1101 1 15.6877 4.60842 2.91656 6.00289 -197190 -118083 17974.3 51466.9 13840.9 -34259.5 -7.41609 
1102 1 14.9563 3.39329 2.91205 6.00848 -181707 -133783 -12042.7 67057.4 -2350.67 -24187.6 -7.41419 
1103 1 15.6406 2.15164 2.91418 5.99757 -177558 -138726 8781.28 54842.3 10551.7 -31996 -7.41549 
1104 1 14.9082 0.937145 2.9105 6.00567 -165160 -150391 -3178.84 68635.5 -7670.01 -26339.6 -7.41461 
1233 1 17.8796 8.26159 2.93037 5.99514 -230588 -81388.9 35758.7 55878.5 18572.7 -38681.4 -7.41765 
1234 1 17.151 7.04475 2.92522 5.9958 -211757 -102360 -29186.1 75203.9 3756.97 -22061.6 -7.41369 
1235 1 17.8351 5.8029 2.92659 5.99723 -211099 -103100 26979.3 66168.9 16711.2 -37351.8 -7.41701 
1236 1 17.105 4.58693 2.92194 6.00474 -194231 -121116 -20048 83772.6 -2089.65 -24946.4 -7.41408 
1237 1 17.7895 3.34539 2.92393 5.99315 -190137 -125207 16363.8 72130 14125.7 -35445.3 -7.4163 
1238 1 17.058 2.13017 2.91997 6.00141 -176151 -139723 -9466.18 87939.4 -7544.02 -27504.5 -7.41459 
1239 1 17.743 0.889038 2.92254 5.98722 -168818 -147579 4657.72 73751.1 10925 -33050.1 -7.41559 
6768 2 10.461 8.80345 6.49474 6.01187 -115011 -200357 12758.5 -13904 19510.6 -24812.2 -7.41534 
6769 2 11.195 7.59033 6.49558 6.00535 -108366 -206536 -13527.5 -8466.51 12616.8 -14777.2 -7.41388 
6770 2 10.5084 6.35011 6.50034 6.01447 -127575 -187387 10978.4 -23777.9 16163.2 -23276.6 -7.41501 
6771 2 11.2426 5.13701 6.50019 6.00497 -124494 -189830 -10300.1 -16657.1 6926.39 -17057.6 -7.4139 
6772 2 10.5571 3.89613 6.5042 6.01442 -139380 -175227 7618.49 -30489.5 12295.5 -21700.6 -7.41467 
6773 2 11.2911 2.68294 6.50299 6.00601 -140669 -173988 -5698.92 -22001.9 1773.72 -19240 -7.41406 
6774 2 10.6065 1.44155 6.50618 6.01531 -150726 -163935 3199.65 -34226.7 8083.29 -20207.5 -7.41437 
6775 2 11.3402 0.228127 6.50391 6.0083 -156420 -158780 -314.649 -24551.2 -2805.8 -21474 -7.41431 
6903 2 13.3007 8.85493 6.4854 5.99819 -90183.7 -224556 -21409.7 -14602.5 13442.1 -16301.4 -7.41378 
6904 2 12.6128 7.61557 6.49031 6.00739 -112386 -202723 18006.3 -32485.8 19706.1 -28639.6 -7.41579 
6905 2 13.3469 6.40238 6.4903 5.99679 -109499 -205325 -17338.6 -25115.4 7743.15 -19269.9 -7.41386 
6906 2 12.6602 5.16224 6.49472 6.00705 -127289 -187355 13591.2 -41523.2 16325.1 -27123.2 -7.41535 
6907 2 13.3943 3.94894 6.49369 5.9972 -128473 -186347 -11480.4 -32570.9 2392.94 -22008.4 -7.41408 
6908 2 12.7087 2.70815 6.49747 6.00813 -142259 -172874 7730.04 -47347.4 12352.4 -25488.7 -7.41492 
6909 2 13.4424 1.49463 6.4954 5.99921 -147571 -168370 -4424 -36975.4 -2411.59 -24618 -7.41441 
6910 2 12.7577 0.253312 6.49844 6.01049 -156414 -158714 1021.03 -50590.6 7875.65 -23808.1 -7.41452 
7038 2 14.7187 8.87858 6.47988 5.99981 -94817.6 -218827 26795.2 -41298.4 22401.5 -32895.9 -7.4167 
7039 2 15.4526 7.66524 6.48004 5.98898 -92674.8 -221558 -26068.1 -34440.1 7982.68 -20286.3 -7.41372 
7040 2 14.7647 6.42593 6.48445 5.99881 -113092 -201149 21495.6 -53186.9 19850.7 -31625.8 -7.41619 
7041 2 15.4986 5.21251 6.48369 5.98843 -114288 -200515 -19144.6 -44336.3 2574.49 -23560.8 -7.41401 
7042 2 14.8119 3.97244 6.48769 5.99953 -130746 -183924 14315.9 -61693.4 16451.4 -30069.5 -7.41564 
7043 2 15.5456 2.7588 6.48594 5.98972 -136119 -179673 -10555.4 -51057.6 -2374.79 -26592.6 -7.41442 
7044 2 14.8599 1.51809 6.4894 6.00184 -148280 -166901 5860.11 -66905.3 12374.3 -28295.3 -7.4151 
7045 2 15.5931 0.304094 6.48666 5.99276 -156751 -158909 -989.345 -54698.5 -6743.62 -29411.6 -7.41492 
7173 2 17.5598 8.9254 6.47016 5.98224 -75783.5 -236958 -36008.6 -43716 7737.46 -20121.9 -7.41349 
7174 2 16.8705 7.68696 6.47418 5.9905 -96880.5 -214998 30935.8 -64439 22501 -34775.6 -7.41714 
7175 2 17.6043 6.47338 6.47375 5.98049 -98925.3 -214597 -28348.4 -56422 2378.84 -23782.3 -7.41383 
7176 2 16.9163 5.2341 6.47759 5.99051 -117382 -195950 22732.1 -75680.7 19958.9 -33438.5 -7.4165 
7177 2 17.65 4.02032 6.47626 5.98079 -122627 -192151 -18548.8 -65610.1 -2655.2 -27163.7 -7.41431 
7178 2 16.9632 2.78031 6.47978 5.99236 -137892 -176863 12764.3 -83522.5 16554.7 -31756 -7.41584 
7179 2 17.6964 1.56619 6.47752 5.98308 -146011 -169586 -7272.98 -71436.5 -7113.59 -30264.9 -7.41491 
7180 2 17.0106 0.325566 6.48061 5.99601 -157001 -158083 1756.6 -87633.9 12394.4 -29772 -7.41518 
7308 2 18.9779 8.94526 6.46457 5.98276 -81034 -228067 41292 -74240.6 24119.7 -36439.2 -7.41814 
7310 2 19.0221 6.493 6.46788 5.98182 -103131 -207688 32478.8 -88457.2 22586.2 -35355.6 -7.41745 
7312 2 19.0676 4.03979 6.47028 5.98289 -125385 -187309 21409.7 -99289.9 20059.8 -33869.5 -7.41669 
7314 2 19.1139 1.58558 6.47161 5.98598 -147320 -167084 8779.09 -105825 16652 -32016 -7.4159 
1368 1 19.2968 8.24191 2.93458 5.99067 -225106 -87826.7 -39360.2 88150.9 3606.81 -21269.3 -7.41342 
1369 1 19.9813 7.00026 2.93591 5.99233 -223961 -88129.5 37014.2 80478.8 18957.6 -38745.6 -7.41798 
1370 1 19.2524 5.78339 2.93138 6.00065 -207147 -107396 -29455.5 99770.3 -2076.02 -24452.8 -7.41386 
1371 1 19.9372 4.54201 2.9332 5.9887 -203369 -110972 25460.5 89069.1 17179.1 -37263.9 -7.41719 
1372 1 19.2068 3.32598 2.92923 5.99785 -187909 -127282 -17587.2 106491 -7525.1 -27301.2 -7.41444 
1373 1 19.892 2.08498 2.93151 5.98261 -181276 -134129 12271.3 93051 14699.3 -35209.7 -7.41636 
1374 1 19.1604 0.869661 2.92822 5.99097 -168307 -147341 -4535.66 108584 -12444.8 -29820.8 -7.41514 
1503 1 22.1263 8.20041 2.94417 5.98767 -234397 -74703.7 47423.5 92891.9 20536.5 -38613.9 -7.41895 
1504 1 21.3985 6.98265 2.93989 5.99636 -219019 -94313.5 -39640.8 113565 -2250.31 -22995.5 -7.41357 
1505 1 22.0837 5.7415 2.94155 5.98371 -215378 -97062.8 35440.9 104545 19595.3 -37526.1 -7.41812 
1506 1 21.3544 4.52461 2.93772 5.9954 -200212 -114685 -27019.2 123437 -7589.47 -25959.5 -7.4142 
1507 1 22.0399 3.28381 2.93973 5.97951 -194452 -120604 21329.3 111333 17883.5 -35859.1 -7.41721 
1508 1 21.3093 2.06771 2.93649 5.98699 -180001 -135241 -12662.8 128025 -12502.9 -28610.8 -7.41497 
1509 1 21.9955 0.82735 2.9388 5.97311 -171503 -144050 5890.1 113257 15441.7 -33658.4 -7.41626 
1638 1 23.5434 8.18457 2.94722 5.99194 -228264 -82425.6 -49975.9 124765 -2517.39 -20914.4 -7.41322 
1639 1 24.229 6.94369 2.94875 5.9796 -224761 -84812.9 45688.3 117677 21348.4 -36501.4 -7.41904 
1640 1 23.5008 5.72599 2.94514 5.99237 -210996 -102607 -37121.4 137511 -7674.85 -23830.5 -7.41388 
1641 1 24.1868 4.48541 2.94692 5.97583 -205487 -107250 31206.5 127442 20402.8 -35195.3 -7.41808 
1642 1 23.4572 3.26852 2.94382 5.98424 -192057 -122950 -22047.1 145269 -12534.4 -26468.6 -7.41469 
1643 1 24.1436 2.02834 2.94581 5.97003 -184458 -130687 14883.1 132019 18686.1 -33371.6 -7.41705 
1644 1 23.4129 0.812181 2.9433 5.97651 -171330 -143583 -5575.13 147352 -16790.6 -28824.6 -7.41562 
1773 1 26.3733 8.14837 2.95481 5.97668 -231371 -74198.4 55694.4 128174 22474.8 -34526.5 -7.41991 
1774 1 25.6462 6.92991 2.95141 5.98903 -219118 -91838.5 -47306.7 148713 -7712.86 -21254.7 -7.41351 
1775 1 26.3326 5.68961 2.953 5.97195 -214454 -95646.8 41322.2 140825 22253.5 -33515.8 -7.41893 
1776 1 25.604 4.47197 2.95007 5.98237 -201801 -111488 -32060.9 159323 -12479.1 -23760.2 -7.41432 
1777 1 26.2907 3.232 2.95179 5.96801 -195245 -117807 24683.6 148327 21238.3 -32043.8 -7.41786 
1778 1 25.5609 2.01511 2.9494 5.97367 -182945 -131550 -14909.1 164463 -16746.5 -26029.3 -7.41529 
1779 1 26.2483 0.775572 2.95121 5.96206 -174017 -140311 6601 150612 19413.9 -30142.2 -7.41674 
1908 1 27.7904 8.13612 2.95662 5.98665 -224817 -83535.9 -57135.8 156280 -7658.69 -18508.3 -7.41312 
1909 1 28.4773 6.89612 2.95806 5.96933 -220718 -86380.6 51216.5 150929 23491.1 -31126.8 -7.41975 
1910 1 27.7497 5.6778 2.95526 5.98095 -209562 -102083 -42159 169829 -12299.2 -20797.1 -7.41393 
1911 1 28.4369 4.43808 2.95679 5.96556 -203932 -106863 34744.2 161439 23126.4 -29955.2 -7.41865 
1912 1 27.708 3.22051 2.95449 5.97185 -192411 -120566 -24880.5 178052 -16564.9 -22894.9 -7.41489 
1913 1 28.3956 1.98115 2.95605 5.96035 -185006 -127815 16367.7 166431 21952.5 -28405.9 -7.41749 
1914 1 27.6656 0.764231 2.95432 5.9643 -173688 -139500 -6125.64 180468 -20171.6 -24803.1 -7.41597 
7309 2 19.7114 7.73146 6.46449 5.97386 -83582.6 -227719 -38526.6 -67557.9 1949.06 -22849.1 -7.41355 
7311 2 19.7556 5.27903 6.46702 5.97299 -108797 -204496 -27961.7 -79631.5 -3114.5 -26417.3 -7.41409 
7313 2 19.8008 2.8255 6.46859 5.97416 -133971 -180664 -15407.9 -88098.8 -7673.21 -29703 -7.41476 
7315 2 19.8464 0.370836 6.46909 5.9775 -158519 -157506 -1678.73 -92587.2 -11541.4 -32658.9 -7.41554 
7443 2 21.8199 8.98681 6.45625 5.96894 -69588.7 -238402 -49039.3 -77525.2 1435.41 -21092.1 -7.41322 
7444 2 21.1293 7.74916 6.45904 5.97406 -88800.8 -218020 42920.5 -99417.8 24247.8 -35864.3 -7.41843 
7445 2 21.8625 6.53494 6.45866 5.96674 -95248.5 -215040 -38185.1 -92243.6 -3592.85 -24661.4 -7.41377 
7446 2 21.1734 5.29647 6.46146 5.9741 -112695 -196930 31247.6 -112917 22691.9 -34590.5 -7.41761 
7447 2 21.9063 4.08199 6.46036 5.96675 -121627 -191368 -24887.2 -103451 -8246.79 -27979 -7.4145 
7448 2 21.2184 2.84279 6.46307 5.97636 -136514 -176355 17492.5 -122456 20166.5 -32941.6 -7.41673 
7449 2 21.9508 1.6279 6.46122 5.96895 -147316 -167885 -9874.04 -110385 -12234.5 -31002.7 -7.41534 
7450 2 21.2638 0.388082 6.46377 5.98067 -159036 -155711 2518.54 -127694 16743.3 -30941.3 -7.41583 
7578 2 23.238 9.00273 6.4513 5.9677 -75963.5 -225754 53444.6 -107799 25028.8 -35187.8 -7.41939 
7579 2 23.9708 7.78821 6.45138 5.96236 -83282.5 -223534 -48607.8 -102926 -3961.56 -22273.8 -7.41341 
7580 2 23.2804 6.55048 6.45361 5.96662 -100555 -205319 41649 -124167 24429.6 -34092.2 -7.41855 
7581 2 24.0131 5.33574 6.45309 5.96108 -109521 -200772 -35085.5 -116727 -8676.69 -25471.4 -7.41414 
7582 2 23.324 4.09728 6.45536 5.96775 -125339 -184872 27332.3 -136569 22820.2 -32650.5 -7.4176 
7583 2 24.0563 2.8822 6.45418 5.96183 -135811 -177334 -19365.4 -126309 -12822 -28428.8 -7.41502 
7584 2 23.3683 1.64307 6.45641 5.97105 -149045 -163937 11255 -144388 20253.5 -30888.5 -7.41661 
7585 2 24.1 0.427517 6.45456 5.96487 -160939 -153704 -2343.92 -131573 -16175.1 -31089.4 -7.41601 
7713 2 26.0802 9.03907 6.44521 5.95988 -73259.9 -229437 -58731.3 -111149 -4157.19 -19594.4 -7.41302 
7714 2 25.3888 7.80202 6.44686 5.96072 -89755.3 -211535 52051.3 -132614 25368.6 -32646.5 -7.41946 
7715 2 26.1211 6.58699 6.44687 5.95707 -98916.8 -207644 -45431.5 -127478 -8862.85 -22555 -7.41374 
7716 2 25.4309 5.3492 6.44864 5.96054 -114454 -191479 37685.5 -147581 24635.6 -31382 -7.41849 
7717 2 26.163 4.13389 6.44809 5.95653 -124795 -185329 -29550.7 -139766 -13158.7 -25327.1 -7.41462 
7718 2 25.4739 2.89544 6.44991 5.96262 -138837 -171368 21086.5 -158267 22922.1 -29845.9 -7.41743 
7719 2 26.2055 1.67973 6.44874 5.95816 -150349 -162651 -11860.6 -147575 -16723.1 -27878.7 -7.41564 
7720 2 25.5174 0.440686 6.45058 5.96705 -161798 -151227 3181.78 -163933 20270.6 -28059.7 -7.41634 
7848 2 27.4983 9.05138 6.44116 5.95656 -80782.1 -214411 62014.5 -137874 25651.9 -30537.3 -7.42033 
7849 2 28.2302 7.83601 6.44165 5.95512 -90176 -211745 -55483 -135460 -8786 -19523.5 -7.41331 
7850 2 27.5389 6.59882 6.44293 5.95501 -105118 -195838 48024.9 -155634 25718.5 -29405.3 -7.41935 
7851 2 28.2707 5.38324 6.44293 5.95318 -115220 -191196 -39898.2 -150490 -13175.6 -22031.8 -7.41417 
7852 2 27.5806 4.1454 6.44433 5.95575 -129158 -177178 31433.4 -169009 24805.7 -28060.6 -7.41826 
7853 2 28.3121 2.92949 6.44378 5.95339 -140428 -170154 -22079.6 -160950 -16964.4 -24379.7 -7.41518 
7854 2 27.623 1.69108 6.44527 5.95885 -152539 -158300 13030 -177477 22945.9 -26524.9 -7.41712 
7855 2 28.3539 0.474715 6.44413 5.95581 -164021 -149003 -2950.94 -166450 -19912.3 -26525.3 -7.41631 
2043 1 30.6212 8.10464 2.96226 5.96771 -223215 -79375.3 60605.6 157491 24196.3 -28279.5 -7.42052 
2044 1 29.8945 6.8857 2.95954 5.97869 -214488 -94423.6 -51951.9 176736 -11972 -17801.2 -7.41351 
2045 1 30.5822 5.64627 2.96091 5.96314 -209841 -97967.8 44650.8 170909 24422.1 -27351.9 -7.41942 
2046 1 29.8541 4.42806 2.95868 5.97098 -199909 -111689 -34982.8 187871 -16220.6 -19675.8 -7.41445 
2047 1 30.5421 3.18892 2.96005 5.95862 -193914 -117317 26452.2 179062 23842.7 -26109.4 -7.41824 
2048 1 29.8129 1.97137 2.95836 5.96266 -183368 -129173 -16097.2 193382 -19914.3 -21401.9 -7.41553 
2049 1 30.5014 0.732595 2.95968 5.95368 -175582 -136897 6810.4 181675 22416.8 -24577.7 -7.41702 
2178 1 32.0384 8.09536 2.96306 5.97736 -215886 -89398.4 -61195.7 180234 -11487.4 -14908.1 -7.41311 
2179 1 32.7266 6.85624 2.96433 5.9616 -212333 -91551 54145.6 177279 25207.6 -24425.2 -7.42016 
2180 1 31.9993 5.6375 2.9621 5.97078 -204355 -104785 -44855 194375 -15694 -16535.7 -7.414 
2181 1 32.6877 4.3986 2.96334 5.95734 -199907 -108863 36469.7 188429 25166.2 -23442.1 -7.41898 
2182 1 31.9593 3.18049 2.96163 5.9618 -190795 -120358 -26265.3 202826 -19472.4 -18049.4 -7.41505 
2183 1 32.648 1.94188 2.9628 5.95191 -184689 -126243 16952.3 193996 24301.8 -22216.9 -7.41773 
2184 1 31.9187 0.724338 2.96166 5.95487 -175141 -136018 -6230.61 205645 -22565.8 -19455.6 -7.41622 
2313 1 34.8704 8.0677 2.96718 5.9611 -211600 -88409 63074.4 180325 25558 -21304.3 -7.42085 
2314 1 34.1438 6.84852 2.96492 5.97027 -205685 -100748 -54271.3 197299 -14984.4 -13570.2 -7.41356 
2315 1 34.8327 5.60989 2.96606 5.95647 -202429 -103036 46169.3 194300 26007 -20545.7 -7.41968 
2316 1 34.1049 4.39131 2.9643 5.96165 -195383 -114138 -36294.1 208994 -18830.4 -14857.1 -7.41455 
2317 1 34.794 3.1529 2.96535 5.95118 -191068 -118216 27109.8 203038 25652.7 -19585.5 -7.41843 
2318 1 34.0653 1.93485 2.96414 5.95411 -182830 -127585 -16482 214756 -22096 -16064.9 -7.4157 
2319 1 34.7547 0.696704 2.96507 5.94695 -176624 -133514 6685.39 206053 24448 -18447.7 -7.41715 
2448 1 36.2876 8.06077 2.96729 5.96988 -203664 -98917.8 -63104.7 197234 -14103.3 -10819.1 -7.41314 
2449 1 36.9771 6.82245 2.96835 5.95635 -201663 -100069 55399.7 196669 26439.7 -17503.2 -7.42036 
2450 1 36.2499 5.60349 2.9665 5.96207 -196638 -110506 -45966.1 211299 -17989.6 -11882.6 -7.41407 
2451 1 36.9394 4.36529 2.96748 5.95046 -194005 -113089 37058.6 208114 26547.8 -16779.7 -7.41913 
2452 1 36.2112 3.14685 2.96615 5.95417 -187750 -122094 -26687.9 220103 -21417.4 -12883.3 -7.41517 
2453 1 36.9009 1.90885 2.967 5.94671 -183512 -125999 16967 214203 25838 -15902.1 -7.41783 
2454 1 36.172 0.690829 2.96624 5.94827 -176233 -133101 -6052.11 223116 -24152.7 -13834.7 -7.41638 
7983 2 30.3402 9.08313 6.4373 5.95495 -83848.4 -212762 -64945.3 -140586 -8477.21 -16568.5 -7.4129 
7984 2 29.6481 7.84646 6.43812 5.95138 -97584 -197649 57965 -160381 26199 -26961.2 -7.42017 
7985 2 30.3794 6.63055 6.43862 5.95169 -107853 -194426 -49993.6 -158040 -12876.8 -18771.1 -7.41372 
7986 2 29.6884 5.39325 6.43961 5.95071 -121046 -180771 41805.9 -176287 26015.6 -25768.3 -7.41908 
7987 2 30.4196 4.1771 6.43962 5.95057 -132069 -175684 -32499.9 -171136 -16851.5 -20858.2 -7.4147 
7988 2 29.7296 2.93925 6.44075 5.95239 -144057 -163730 23422 -187659 24889.2 -24442.3 -7.41791 
7989 2 30.4604 1.72273 6.44021 5.95097 -154601 -156197 -13221.7 -179224 -20084.2 -22807.7 -7.41581 
7990 2 29.7712 0.484382 6.44144 5.95633 -165000 -146461 3749.1 -193427 22840.8 -22988.8 -7.41671 
8118 2 31.7582 9.09247 6.43413 5.94965 -92360.5 -196769 67258.2 -162259 26192.6 -24226.5 -7.42094 
8119 2 32.489 7.87619 6.43506 5.95169 -102421 -194971 -59571.4 -162648 -12302.4 -15682.5 -7.41328 
8120 2 31.7972 6.63935 6.43566 5.94756 -114901 -181945 51842.9 -180477 26662.5 -23159.2 -7.41987 
8121 2 32.528 5.4229 6.43617 5.94867 -125030 -178422 -42736.5 -178076 -16396.1 -17481.7 -7.4142 
8122 2 31.8372 4.18553 6.43694 5.94772 -136869 -166777 33901.4 -194245 26202.1 -22002.7 -7.41869 
8123 2 32.5677 2.96883 6.43694 5.94745 -146599 -161114 -23745 -188727 -19894.7 -19189.7 -7.41528 
8124 2 31.8778 1.73097 6.43786 5.95012 -156871 -151267 14201.4 -202766 24827.5 -20769.6 -7.41745 
8125 2 32.6079 0.513901 6.43729 5.94855 -166930 -143791 -3487.63 -194193 -22556.9 -20782.3 -7.41648 
8253 2 34.5992 9.12049 6.43214 5.95198 -99491.8 -192913 -68479.8 -164368 -11513 -12828.7 -7.41286 
8254 2 33.9068 7.88401 6.43239 5.9462 -110593 -180659 61311.3 -181608 26840.8 -20360.6 -7.4206 
8255 2 34.6371 6.66724 6.43332 5.94838 -120346 -178857 -52541.2 -182099 -15641.2 -14341.8 -7.41372 
8256 2 33.9456 5.43025 6.43377 5.94485 -131257 -167756 44121.1 -197785 26982.4 -19346.5 -7.41945 
8257 2 34.6759 4.21332 6.43424 5.94569 -140530 -164018 -34173.3 -195203 -19353.4 -15791.3 -7.41474 
8258 2 33.9852 2.97588 6.43486 5.94568 -150381 -154535 24802.5 -208869 26227.7 -18292.9 -7.4182 
8259 2 34.7152 1.75868 6.43478 5.94527 -159620 -149109 -14105.9 -203221 -22342.6 -17170.5 -7.4159 
8260 2 34.0252 0.520862 6.43557 5.94881 -167923 -141397 4245.53 -214529 24589.9 -17202.5 -7.41694 
8388 2 36.0171 9.12758 6.4297 5.94653 -108649 -177073 70093 -180188 26629.7 -17445.3 -7.4213 
8389 2 36.7468 7.91043 6.431 5.94897 -117859 -176766 -61760.3 -183332 -14648.7 -11469.3 -7.41327 
8390 2 36.0548 6.67376 6.43115 5.94372 -127711 -166384 53868.7 -198451 27318.3 -16555.2 -7.42016 
8391 2 36.7846 5.45654 6.43203 5.94557 -136502 -164688 -44265.3 -198912 -18500.7 -12664.3 -7.41422 
8392 2 36.0934 4.21945 6.43236 5.94301 -145790 -155804 35241.8 -211962 27128.6 -15656.4 -7.41893 
8393 2 36.8231 3.00207 6.43274 5.94367 -154289 -152312 -24717.3 -209363 -21778.9 -13812.8 -7.41533 
8394 2 36.1326 1.76461 6.43325 5.94451 -162165 -144712 14943.7 -220371 26071.8 -14750.5 -7.41766 
8395 2 36.862 0.546962 6.43307 5.94388 -170133 -138965 -3963.33 -214455 -24252.3 -14903.1 -7.41655 
8524 2 38.1645 7.91636 6.42899 5.94426 -126401 -162994 63013.2 -196525 27277.8 -13674.4 -7.42085 
8526 2 38.2021 5.46198 6.43031 5.94201 -143078 -154590 45308.9 -212355 27607 -12910.3 -7.41965 
8528 2 38.2405 3.0072 6.43135 5.94197 -158179 -145736 25587.9 -223328 27081.7 -12163.4 -7.41837 
8530 2 38.2793 0.551966 6.43203 5.94415 -171219 -136770 4680.2 -228419 25708.4 -11432.3 -7.41707 
2583 1 39.121 8.03591 2.97032 5.95641 -197211 -99485 64087.6 195867 26525.5 -14361.7 -7.421 
2584 1 38.3943 6.81668 2.96835 5.96278 -194480 -109211 -55146 210440 -16955.2 -9138.81 -7.41362 
2585 1 39.0842 5.57873 2.96927 5.95044 -193353 -110136 46635.9 209989 27060.5 -13847.1 -7.41979 
2586 1 38.3566 4.35996 2.96781 5.95472 -189207 -118527 -36636.5 221950 -20525 -9938.33 -7.41465 
2587 1 39.0465 3.12212 2.96859 5.94615 -186624 -120672 27151.1 219005 26796.5 -13207.3 -7.41851 
2588 1 38.3181 1.90376 2.96769 5.94848 -181421 -127553 -16396.4 228101 -23499.2 -10695.4 -7.41581 
2589 1 39.0082 0.666082 2.96831 5.94367 -177677 -131681 6378.97 222242 25696.6 -12453.5 -7.41721 
2718 1 40.5383 8.03057 2.96995 5.96314 -189111 -110505 -63766 206653 -15742.3 -6625.28 -7.41319 
2719 1 41.2287 6.79288 2.97083 5.95043 -189188 -109684 55756.5 209111 27244.2 -10819.8 -7.42043 
2720 1 40.5014 5.57389 2.9692 5.95549 -187173 -117520 -46189.4 221021 -19418.2 -7225.16 -7.41415 
2721 1 41.1918 4.33624 2.96995 5.946 -186626 -118115 37062.6 220849 27396.1 -10389.9 -7.41918 
2722 1 40.4637 3.11762 2.96886 5.94901 -183105 -124495 -26591.4 229894 -22619.5 -7797.6 -7.41525 
2723 1 41.1541 1.88005 2.96944 5.94319 -180917 -126612 16728.3 227187 26737.1 -9865.42 -7.41787 
2724 1 40.4255 0.661746 2.96892 5.94434 -176971 -131498 -5722.96 233343 -25125.1 -8346.83 -7.41648 
2853 1 43.373 8.00749 2.97219 5.95103 -182316 -112154 64346.7 205306 27137.7 -7699.89 -7.42105 
2854 1 42.646 6.78837 2.97041 5.95583 -181879 -119202 -55265.8 217160 -18107.5 -4740.2 -7.41367 
2855 1 43.3367 5.55093 2.97112 5.94589 -183049 -118111 46608.8 219812 27683.6 -7471.55 -7.41982 
2856 1 42.609 4.33215 2.96984 5.9497 -181610 -124092 -36493.3 229058 -21510.5 -5126.74 -7.41471 
2857 1 43.2996 3.09472 2.97039 5.94316 -181624 -124260 26911.6 229175 27437.8 -7154.2 -7.41853 
2858 1 42.5713 1.8762 2.96966 5.94484 -178782 -128615 -16092.5 235388 -24309.3 -5498.17 -7.41588 
2859 1 43.2619 0.638835 2.97003 5.94173 -177052 -130492 6019.09 232960 26364.1 -6763.02 -7.41722 
2988 1 44.7904 8.00308 2.97146 5.95653 -173742 -123141 -63795.4 210735 -16598.5 -2463.45 -7.41324 
2989 1 45.4816 6.76589 2.97215 5.94658 -175942 -120697 55700.6 215793 27696.7 -4440.1 -7.42045 
2990 1 44.754 5.54703 2.97068 5.95007 -176699 -125976 -46010.4 225093 -20171.1 -2672.75 -7.41419 
2991 1 45.4449 4.30976 2.97121 5.94301 -178210 -124526 36833.2 227987 27837.3 -4325.63 -7.41918 
2992 1 44.7168 3.09115 2.97027 5.94549 -177825 -128527 -26274 234372 -23250.6 -2865.27 -7.41531 
2993 1 45.4076 1.85387 2.97062 5.94186 -178203 -128611 16380.4 234601 27172.7 -4136.41 -7.41787 
2994 1 44.6792 0.635419 2.97025 5.94228 -176436 -130942 -5338.16 237975 -25625.3 -3060.31 -7.41654 
3123 1 47.6265 7.9808 2.97306 5.94738 -165701 -125437 64269.3 209199 27457.9 -1285.63 -7.42104 
3124 1 46.899 6.76197 2.97141 5.95085 -168251 -130184 -55056.6 218386 -18597.2 -410.27 -7.41371 
3125 1 47.5903 5.52489 2.97192 5.9435 -171585 -127205 46383.8 223883 27973.9 -1359.54 -7.41981 