ITEM: TIMESTEP
306
ITEM: NUMBER OF ATOMS
22328
ITEM: BOX BOUNDS pp pp pp
0.0000000000000000e+00 1.2975027299999999e+02
0.0000000000000000e+00 2.2473406499999999e+02
0.0000000000000000e+00 1.5000000000000000e+01
ITEM: ATOMS id type x y z c_csym c_2[1] c_2[2] c_2[3] c_2[4] c_2[5] c_2[6] c_3 
208 1 0.865691 8.5806 2.91398 6.01184 -177876 -145088 -3136.65 -32789.6 17516.6 -2414.83 -7.41562 
209 1 0.136166 7.36515 2.90988 6.01668 -152714 -166633 3238.52 -27064.7 26581.5 -2352.91 -7.41617 
210 1 0.82329 6.12493 2.90572 6.013 -174560 -147739 -1119.41 -21511 19418.1 -3125.78 -7.41553 
211 1 0.0926055 4.9101 2.90146 6.01967 -154943 -165770 1040.98 -14884.4 22346.3 -1632.83 -7.41566 
212 1 0.77867 3.66936 2.89791 6.01681 -169369 -151960 -460.632 -9386.12 15614.3 -3816.41 -7.41538 
213 1 0.0469536 2.45509 2.89476 6.02394 -157271 -163550 -337.911 -4218.59 12730.4 -675.816 -7.41532 
214 1 0.732274 1.21398 2.89306 6.02463 -163360 -157396 -653.524 -1562.8 6076.25 -3986.42 -7.41525 
215 1 -2.49702e-06 1.65531e-06 2.89218 6.02912 -160312 -160285 -766.107 7.46465 0.58132 1.46609 -7.41521 
392 1 2.28316 8.55409 2.91467 6.01155 -169911 -149118 3743.1 -27503.9 25889.6 -5058.19 -7.41639 
393 1 2.97017 7.31369 2.91155 6.01364 -191680 -130318 -676.954 -25195.5 16848.9 -10845.8 -7.41577 
394 1 2.24074 6.0981 2.90682 6.01304 -169017 -151538 1421.06 -15343.1 24226.5 -7424.54 -7.41588 
395 1 2.92682 4.85727 2.90398 6.01447 -183783 -137492 398.262 -12484.1 16421.9 -13278 -7.41564 
396 1 2.19612 3.64237 2.89938 6.01618 -166300 -154855 -42.9737 -2753.4 17225.6 -9155.14 -7.41548 
397 1 2.88149 2.40125 2.89792 6.01988 -172675 -148080 226.911 -1926.73 10453.6 -14663.2 -7.41546 
398 1 2.14973 1.18694 2.89476 6.02057 -162331 -158707 -574.044 5173.04 5715.01 -10250.2 -7.4153 
575 1 5.11575 8.50397 2.91788 6.01119 -204884 -115373 877.773 -25205 12349.5 -15122.1 -7.41618 
576 1 4.38755 7.28761 2.91361 6.00679 -184037 -137101 483.928 -12395 22146 -8920.92 -7.41601 
577 1 5.07369 6.04675 2.91167 6.01283 -197286 -122935 2162.97 -11972.8 14552.8 -18807.5 -7.41609 
578 1 4.34421 4.83109 2.90684 6.01011 -178828 -143297 -656.233 1956.04 18090.3 -13006.9 -7.41564 
579 1 5.02972 3.59 2.90576 6.01711 -184730 -135472 2015.41 1074.71 12337.6 -21585.9 -7.41589 
580 1 4.29892 2.37505 2.90145 6.01408 -170220 -151548 -724.853 13487.3 9341.44 -16221.6 -7.41546 
581 1 4.98422 1.13396 2.90211 6.01655 -168692 -152198 818.512 8642.16 5561.32 -22202.8 -7.41566 
758 1 6.53308 8.47882 2.92022 6.00452 -194802 -125964 -1870.52 -8601.11 17346.4 -7053.02 -7.41601 
759 1 7.21943 7.23803 2.9191 6.00837 -205627 -112140 4743.67 -10331 11133.9 -20242.9 -7.41663 
760 1 6.49103 6.02166 2.91485 6.00662 -189892 -132776 -2650.2 7240.78 15503.7 -12217.2 -7.41572 
761 1 7.17681 4.78069 2.91414 6.0129 -194566 -124077 4533.45 4638.32 11895.6 -23625.6 -7.41645 
762 1 6.44709 3.56503 2.90984 6.01098 -180363 -142588 -2086.82 21854 9877.64 -16862.5 -7.41558 
763 1 7.13262 2.32404 2.9103 6.01446 -178664 -141114 2881.51 15966.5 8724.82 -25314.7 -7.41615 
764 1 6.40167 1.10908 2.90681 6.01336 -167105 -154889 -474.756 30251.4 1000.3 -20337.2 -7.41564 
942 1 8.63675 7.21397 2.92193 6.00695 -195531 -125877 -5811.68 10578.3 10923.7 -8690 -7.41568 
944 1 8.59416 4.75694 2.91771 6.01044 -187664 -135111 -4758.18 27598.7 7751.3 -13462.1 -7.4156 
945 1 9.28007 3.51614 2.91788 6.01346 -185896 -131603 5676.86 20928.3 9996.95 -23917.1 -7.41671 
946 1 8.55002 2.30056 2.91462 6.01404 -175204 -147403 -2354.72 40184.8 1765.13 -17633.9 -7.41572 
947 1 9.23604 1.05995 2.91599 6.00765 -168934 -150977 2362.89 29069.2 6493.81 -23816.8 -7.4163 
11192 2 0.55178 8.60564 6.48585 6.01297 -145728 -172752 4536.33 32719.5 26408.4 1510.09 -7.41644 
11193 2 0.594167 6.15085 6.49423 6.01719 -148697 -171512 2015.34 21753.3 24863.1 108.826 -7.41589 
11194 2 0.638795 3.69607 6.50207 6.01989 -152558 -168350 227.237 9736.83 17927.3 -1718.94 -7.41547 
11195 2 0.685196 1.24116 6.50693 6.02466 -157475 -163207 -652.972 1752.4 6492.31 -3267.53 -7.41525 
11196 2 -5.06766e-06 -8.71161e-09 6.50782 6.02912 -160326 -160293 -766.156 -23.1842 0.580831 1.41705 -7.41521 
11372 2 1.96939 8.63222 6.48514 6.00671 -153397 -169282 -2650.1 28336.9 18332.1 -7318.1 -7.41572 
11373 2 2.69979 7.41732 6.48832 6.01284 -131105 -189083 2163.33 26193 23563.9 -3198.8 -7.41609 
11374 2 2.01174 6.17773 6.49315 6.01013 -153889 -168321 -656.087 16436.9 20309 -9162.9 -7.41564 
11375 2 2.74311 4.96333 6.49601 6.0145 -138279 -183076 398.781 13903.9 19710.1 -7582.92 -7.41565 
11376 2 2.05632 3.72308 6.50061 6.01617 -155322 -165806 -42.5051 3644.76 16540.8 -10339.4 -7.41548 
11377 2 2.78842 2.50903 6.50208 6.01685 -148194 -173150 -460.094 2893.04 11113.9 -11611.8 -7.41538 
11378 2 2.10269 1.2682 6.50523 6.02399 -158307 -162538 -337.396 -4803.71 6949.7 -10686.3 -7.41532 
11379 2 2.83495 0.0541979 6.50442 6.02044 -160248 -160753 -380.098 -1777.12 -166.131 -14175.8 -7.41534 
11555 2 4.80676 8.68236 6.48211 6.01121 -115709 -204409 875.805 26066.4 19270.7 -3133.8 -7.41618 
11556 2 4.11748 7.44353 6.48638 6.00685 -138014 -183004 483.188 14055.3 18799 -14718 -7.41601 
11557 2 4.84876 6.22909 6.48844 6.01366 -123784 -198169 -678.335 13865.7 17818 -9168.81 -7.41578 
11558 2 4.16073 4.9896 6.49317 6.013 -142674 -178087 1421.76 -14.1235 18542.7 -17269.2 -7.41587 
11559 2 4.89269 3.77546 6.49427 6.01288 -135875 -186528 -1118.84 985.554 12416.9 -15253.6 -7.41554 
11560 2 4.20597 2.53526 6.49853 6.01961 -150157 -170438 1041.81 -12092.2 12588.1 -18536.6 -7.41566 
11561 2 4.93817 1.32118 6.49789 6.01309 -151386 -170305 -500.74 -7787.54 3754.4 -19983 -7.41551 
11562 2 4.25243 0.0803993 6.50061 6.01662 -160012 -161104 36.1556 -17273.1 2135.48 -18171.7 -7.41548 
11738 2 6.22455 8.7077 6.48021 6.00625 -124883 -193859 2693.25 9990.04 14860.4 -16875.8 -7.41647 
11739 2 6.95563 7.49312 6.48151 6.01566 -113098 -208806 -3080.85 11869.2 13708.2 -7057.09 -7.4158 
11740 2 6.26648 6.25432 6.48532 6.01166 -130518 -188709 3740.92 -4850.01 17325.9 -19891.1 -7.41639 
11741 2 6.99818 5.04001 6.48601 6.0119 -124751 -198182 -3137.68 -2185.18 10848.4 -13962.2 -7.41562 
11742 2 6.31032 3.80051 6.49011 6.01667 -139731 -179733 3239.81 -19538.2 15328.1 -21844.8 -7.41616 
11743 2 7.04234 2.58628 6.48966 6.00884 -140855 -181729 -1846.44 -14199.2 5042.72 -20151.8 -7.41563 
11744 2 6.3557 1.34608 6.49314 6.01494 -152533 -167894 1573.95 -29294.2 8523.02 -22079.1 -7.41587 
11745 2 7.08748 0.131638 6.49112 6.00935 -159858 -161557 424.791 -19572.5 -2326.06 -24217.3 -7.41584 
11921 2 9.0634 8.75568 6.4765 6.0175 -108191 -212202 -6429.35 10212.1 9340.18 -3240.13 -7.41574 
11922 2 8.37342 7.51737 6.47887 6.01123 -122484 -193889 6789.2 -8660.25 13890.8 -19572.6 -7.41694 
11923 2 9.10472 6.30279 6.47907 6.01271 -118186 -203809 -6284.07 -4647.35 7882.07 -9538.06 -7.4156 
11924 2 8.41589 5.06387 6.4822 6.01258 -131212 -185897 6104.27 -25012.9 15034.4 -21258.8 -7.41674 
11925 2 9.14757 3.84941 6.48184 6.00748 -132379 -190026 -4515.5 -18833.6 4307.1 -15912.8 -7.41565 
11926 2 8.45994 2.60981 6.4851 6.01098 -144066 -174604 3908.28 -38267 12128.2 -21741 -7.41639 
11927 2 9.19158 1.39523 6.48382 6.00536 -150085 -171432 -1386.88 -28144.7 -1035.88 -21042.8 -7.41591 
11928 2 8.50497 0.15503 6.48639 6.01265 -159804 -161147 807.392 -44047.7 5738.79 -20541.5 -7.41601 
941 1 9.36439 8.43082 2.92552 6.00621 -207375 -107110 8063.77 -9686.43 7809.86 -19285.2 -7.41717 
943 1 9.32297 5.97319 2.92138 6.00984 -198912 -116748 7680.74 6499.32 10334.1 -22002.4 -7.41703 
1124 1 10.7817 8.40753 2.92782 6.00938 -194885 -123526 -9685.11 11099.3 6229.17 -4998.51 -7.41559 
1125 1 11.4685 7.16704 2.92705 6.00949 -197669 -115116 11346.5 5791.37 9113.23 -19294.8 -7.41756 
1126 1 10.7403 5.95041 2.92394 6.01218 -189426 -131627 -8328.99 29346.2 4352.92 -8623.22 -7.41555 
1127 1 11.4268 4.70988 2.92365 6.01227 -188208 -126642 9065.53 22264.7 10481.8 -20296.6 -7.41726 
1128 1 10.6975 3.49382 2.92102 6.01615 -180049 -141746 -5376.33 44998.4 631.839 -12325 -7.4157 
1129 1 11.3838 2.25338 2.92171 6.00812 -175065 -142033 5192.37 34211.6 9190.38 -20389.7 -7.4168 
1130 1 10.6535 1.03788 2.91974 6.01308 -167015 -153762 -1316.47 53763.7 -4699.39 -15550.6 -7.41603 
1307 1 13.6137 8.36173 2.93166 6.01104 -193217 -117409 15349.2 3221.65 9280.07 -18079.6 -7.41802 
1308 1 12.8859 7.14489 2.92856 6.01464 -185757 -131537 -12409.8 27819.4 1313.6 -4992.85 -7.41546 
1309 1 13.573 5.90468 2.92752 6.01263 -186240 -126330 12829.7 20551.1 11340.1 -17264.8 -7.41774 
1310 1 12.8442 4.68833 2.92535 6.01763 -179829 -139560 -9124.13 45115.7 -1214.13 -7220.94 -7.41561 
1311 1 13.531 3.44813 2.92531 6.00841 -176978 -137470 8646.59 35158.2 11347.5 -16537.8 -7.41728 
1312 1 12.8013 2.23225 2.92401 6.01378 -170901 -148543 -4445.31 57524.7 -4936.76 -9740.3 -7.41595 
1313 1 13.4882 0.992195 2.92519 6.00514 -165317 -150969 3130.81 43431.3 9021.88 -15147.2 -7.41672 
1490 1 15.0312 8.33998 2.93237 6.0168 -179314 -133150 -16792.9 25102.1 -82.3591 -4280.38 -7.41539 
1491 1 15.7189 7.10013 2.93028 6.01335 -182616 -129024 16780.6 17768.5 13280.1 -16947.8 -7.41815 
1492 1 14.9904 5.88361 2.92795 6.01879 -175499 -140327 -13338.3 42719.5 -2459.92 -4581.59 -7.41551 
1493 1 15.6778 4.6437 2.92702 6.00854 -175730 -137208 12397.9 33836.5 13841 -14608.5 -7.4177 
1494 1 14.9484 3.42759 2.92612 6.01448 -170345 -146717 -8264.72 57315.8 -5473.23 -5589.59 -7.41582 
1495 1 15.6357 2.1877 2.92674 6.00554 -167850 -146211 6575.59 45293.4 12228 -12597.7 -7.41714 
1496 1 14.9056 0.971943 2.92684 6.00819 -163293 -152912 -2135.59 65493.7 -9000.15 -7294.58 -7.41631 
1673 1 17.8646 8.29613 2.93313 6.01353 -180914 -131598 20975 16346.1 16270.3 -20029.4 -7.41853 
1674 1 17.1364 7.07944 2.92991 6.01971 -170008 -141855 -17885 40680.4 -2182.44 -5362.12 -7.41545 
1675 1 17.8244 5.83984 2.92793 6.00757 -174198 -138958 16300.9 32890.2 17105 -15889.8 -7.41809 
1676 1 17.0953 4.62357 2.92672 6.01421 -166746 -147111 -12591.3 56151.5 -5311.03 -4631.18 -7.4157 
1677 1 17.7829 3.3839 2.92668 6.00379 -168098 -145099 10301.1 46332.2 15806.8 -12556.7 -7.41752 
1678 1 17.0532 2.16796 2.9272 6.00816 -163392 -150859 -5979.22 67078.6 -8818.54 -4932.9 -7.41613 
1679 1 17.7407 0.928288 2.92909 6.00287 -161562 -150993 3286.1 53952.3 12418.9 -9920.71 -7.4169 
12104 2 10.4812 8.77921 6.47449 6.0109 -120260 -193354 10357.3 -10261.2 10029 -18637.9 -7.41745 
12105 2 11.212 7.56428 6.47402 6.01511 -116743 -202604 -10121.5 -5137.33 5208.8 -4650.58 -7.41552 
12106 2 10.5225 6.32574 6.47592 6.01087 -127529 -186752 9533.9 -27386.9 12917.8 -19014.1 -7.41731 
12107 2 11.2537 5.11096 6.47538 6.0092 -128090 -192169 -8102.9 -20656.1 2860.92 -9948.39 -7.41559 
12108 2 10.5652 3.87183 6.47796 6.00761 -138263 -177627 6953.74 -42792.5 13107.8 -18879.3 -7.41696 
12109 2 11.2966 2.65702 6.47721 6.00513 -142896 -177764 -4425.99 -32948.4 -992.887 -14996.7 -7.41586 
12110 2 10.6091 1.41733 6.47975 6.00824 -152139 -166306 3084.31 -52820 9992.82 -17797.1 -7.41649 
12111 2 11.3402 0.202285 6.47847 6.00451 -159288 -160022 343.037 -38163.4 -5551.05 -18690.3 -7.41629 
12287 2 13.3197 8.825 6.47041 6.01729 -118545 -196520 -14365.5 -3591.24 4084.54 -1713.88 -7.41543 
12288 2 12.6298 7.58667 6.47123 6.01156 -128720 -182825 13362.8 -26783.5 10755.9 -17613 -7.4178 
12289 2 13.3603 6.3715 6.47012 6.01181 -128000 -188591 -12194.5 -19895.1 2019.99 -5062.44 -7.41549 
12290 2 12.6713 5.13266 6.47201 6.00697 -136786 -175860 10611.1 -43495.7 12713.2 -16026.6 -7.41749 
12291 2 13.4022 3.91755 6.47138 6.00739 -139319 -178214 -8246.81 -34190.9 -1110.04 -8958.18 -7.41574 
12292 2 12.7141 2.67823 6.47379 6.00539 -147461 -167563 6258.84 -56258.2 12156.6 -14279.7 -7.41701 
12293 2 13.445 1.46303 6.47336 6.00458 -152262 -165252 -2864.37 -42941.4 -5145.47 -12571.2 -7.41617 
12294 2 12.7577 0.223273 6.47549 6.00773 -159503 -158194 960.98 -61608.7 9120.51 -12182.9 -7.41645 
12470 2 14.7375 8.84706 6.46735 6.01358 -132666 -177695 17422.2 -24918.3 10089.9 -18739.7 -7.41822 
12471 2 15.4674 7.63148 6.4653 6.01405 -129495 -182075 -16549.7 -17769.1 2570.24 -3197.8 -7.41542 
12472 2 14.778 6.39281 6.46668 6.00833 -139159 -170860 14696.6 -41804.4 12526 -15311.7 -7.41796 
12473 2 15.5084 5.17734 6.46568 6.00934 -138628 -174202 -12455.2 -33332.7 -477.89 -5243.99 -7.41562 
12474 2 14.8198 3.93823 6.4681 6.00497 -146551 -164917 10148 -56217.7 13388.5 -12221.2 -7.41749 
12475 2 15.5504 2.72281 6.46809 6.00594 -148477 -165724 -6794.39 -44823.3 -4432.03 -7846.45 -7.41601 
12476 2 14.8626 1.48333 6.47076 6.00479 -154976 -159127 4284.14 -64986.1 12053.2 -9542 -7.41691 
12477 2 15.593 0.267813 6.47117 6.00421 -158557 -156056 -136.297 -49253.6 -8736.41 -10412 -7.41653 
12653 2 17.5748 8.89097 6.46013 6.01447 -129213 -176921 -21106.7 -16210.4 4451.7 -4807.9 -7.41541 
12654 2 16.8851 7.65247 6.46118 6.01014 -142565 -166035 19046.9 -40120 13768.8 -17645.7 -7.41837 
12655 2 17.6148 6.43664 6.45947 6.01027 -138174 -168974 -16829.9 -32431.6 1249.58 -4961.08 -7.41556 
12656 2 16.926 5.19768 6.46193 6.00578 -148230 -160370 14496.3 -55339.9 14966 -13015.2 -7.41793 
12657 2 17.6561 3.98197 6.46188 6.00638 -146567 -162690 -11040.5 -45853.2 -2884.32 -5988.71 -7.41587 
12658 2 16.9679 2.74266 6.46522 6.00352 -153669 -156628 8368.96 -66429.1 14485.5 -9200.79 -7.41735 
12659 2 17.6982 1.527 6.46637 6.00365 -154457 -156845 -4107.17 -53681.1 -7728.59 -7731.2 -7.41633 
12660 2 17.0105 0.287447 6.46953 6.00431 -158896 -153661 1277 -70823.5 12200.1 -6462.97 -7.41671 
1856 1 19.282 8.276 2.93261 6.01852 -166942 -141260 -22720 41498.5 -262.19 -8887.11 -7.41545 
1857 1 19.9706 7.03669 2.9296 6.00507 -175219 -139700 20582.4 34473.3 20918.4 -20191 -7.41848 
1858 1 19.2418 5.82021 2.92722 6.01293 -163330 -147779 -17280.7 57005.3 -3881.57 -6987.31 -7.41562 
1859 1 19.9299 4.58078 2.92638 6.00085 -168701 -145522 14232.3 49186.1 19970.9 -15472.2 -7.4179 
1860 1 19.2004 3.36467 2.92645 6.00675 -161306 -150727 -10386.8 69428 -7870.98 -5836.81 -7.41598 
1861 1 19.8882 2.12514 2.92809 5.99932 -163157 -149231 7023.42 59360.8 16624.6 -11800.7 -7.41728 
1862 1 19.1582 0.909258 2.92994 6.00265 -159424 -151496 -2569.41 76261.1 -11923 -6104.53 -7.4165 
2039 1 22.1162 8.23474 2.93339 6.00209 -180873 -136532 25664.8 39682.7 24528.9 -25997.5 -7.41895 
2040 1 21.388 7.01786 2.92926 6.01057 -162947 -145678 -22257.5 61522.1 -1342.31 -11361.6 -7.41561 
2041 1 22.0766 5.77866 2.92763 5.99677 -172238 -144174 18682.4 55192.9 24364.2 -20578.1 -7.41832 
2042 1 21.3474 4.56229 2.92625 6.004 -159928 -150113 -15158.9 74793.1 -5898.24 -9461.94 -7.41588 
2043 1 22.0355 3.32294 2.9274 5.99435 -165438 -148172 11045.1 67382.3 21373.1 -15916.7 -7.41766 
2044 1 21.3057 2.10687 2.92868 5.99948 -158693 -150916 -7022.43 83884.7 -10780.1 -8556.4 -7.41631 
2045 1 21.9936 0.867438 2.93237 5.99417 -159650 -150060 3096.31 73951.7 16045.9 -12559 -7.41704 
2222 1 23.5336 8.21711 2.93401 6.00806 -167557 -139185 -27607.8 69754.6 1521.6 -15790.3 -7.41563 
2223 1 24.2225 6.97811 2.93185 5.99246 -179715 -138776 24023.8 64469.3 28251.5 -26229.1 -7.41882 
2224 1 23.494 5.76127 2.92839 6.00066 -161933 -146764 -20185.4 83918.1 -3221.63 -14215.2 -7.41584 
2225 1 24.1824 4.52212 2.92887 5.98858 -170567 -145323 15652.3 78496.7 26215.1 -21268.1 -7.41811 
2226 1 23.453 3.30575 2.92849 5.9952 -158952 -149610 -11822.7 94736.5 -8741.48 -12866.7 -7.41618 
2227 1 24.141 2.06646 2.93182 5.98767 -162969 -148384 7209.19 87765.5 21173.4 -17218.6 -7.41744 
2228 1 23.411 0.850335 2.93408 5.99217 -157553 -149357 -2866.54 100406 -14412.4 -12710.1 -7.41668 
2405 1 26.3675 8.17971 2.93937 5.98881 -190966 -128813 30301.8 76124.7 30959.7 -30737.5 -7.41942 
2406 1 25.6399 6.96219 2.93391 5.99756 -168298 -139176 -25546.9 95842.2 -559.564 -18283.5 -7.41581 
2407 1 26.3287 5.72323 2.93377 5.98291 -179081 -138495 21114.8 91979.4 30443.5 -26344.5 -7.41865 
2408 1 25.5999 4.50635 2.93109 5.99069 -162435 -145518 -16842.7 108610 -6192.23 -17417 -7.4161 
2409 1 26.2881 3.26723 2.93367 5.9802 -168752 -144524 11892.8 104081 26395.6 -22233.1 -7.4179 
2410 1 25.5585 2.05078 2.93416 5.9862 -158758 -147741 -7667.06 116900 -12548.1 -16955.6 -7.41651 
2411 1 26.2465 0.81158 2.93908 5.97885 -159593 -147994 3041.54 110070 19592.4 -19147.4 -7.41726 
2588 1 27.7849 8.1655 2.94268 5.99544 -178600 -128050 -31407 109051 1413.79 -20544.4 -7.41576 
2590 1 27.7461 5.70916 2.93731 5.98691 -169702 -137866 -22171 124048 -3721.43 -20713.2 -7.41603 
2592 1 27.7056 3.25327 2.93707 5.98052 -162904 -143692 -12670.2 135266 -10165.9 -20679.1 -7.41639 
2594 1 27.664 0.797666 2.94212 5.97683 -157628 -146614 -3073 140579 -17106 -21128.5 -7.41688 
12836 2 18.9925 8.91146 6.45506 6.01065 -143606 -165197 23692.8 -40586 16768.7 -22435.7 -7.41878 
12837 2 19.7218 7.69529 6.45255 6.00809 -135321 -166519 -21397.2 -33283.3 3696.52 -7726.2 -7.41557 
12838 2 19.0324 6.45654 6.45492 6.00609 -149558 -157254 19101.5 -55979.7 17725.8 -16747.6 -7.41835 
12839 2 19.7621 5.24053 6.4545 6.0047 -143985 -159601 -15404.8 -48167.4 -507.762 -7276.1 -7.4158 
12840 2 19.0737 4.00137 6.45831 6.00259 -153981 -153160 12896.8 -68630.8 17351 -11767.2 -7.41778 
12841 2 19.8037 2.7855 6.45976 6.00163 -151207 -155163 -8355.77 -58762.4 -5781.09 -7756.08 -7.41617 
12842 2 19.1158 1.54609 6.46413 6.00124 -157232 -151838 5453.15 -75940.8 15332.1 -8100.03 -7.41713 
12843 2 19.8459 0.330275 6.46647 5.99973 -157502 -152068 -684.96 -62765.3 -11519 -9254.63 -7.41668 
13019 2 21.8294 8.95278 6.4454 6.0027 -128200 -169478 -26421 -36943.5 6005.38 -11980.8 -7.41562 
13020 2 21.1394 7.71444 6.44738 6.00461 -148003 -158503 23961.2 -59565.5 21647.9 -22240.4 -7.41879 
13021 2 21.8687 6.49813 6.4465 6.00004 -138463 -159812 -19998.8 -52886 2150.29 -10810.7 -7.4158 
13022 2 21.1797 5.25924 6.45025 6.00065 -153185 -151904 17634.7 -73287 21102.1 -16698.2 -7.41821 
13023 2 21.9095 4.04313 6.45166 5.9972 -146832 -154165 -12722 -65809 -3144.63 -10212.6 -7.41609 
13024 2 21.2212 2.80389 6.45672 5.99797 -156155 -149541 10043.8 -82973.9 18985.8 -12191 -7.41755 
13025 2 21.9513 1.58792 6.45961 5.99502 -153749 -151445 -4922.26 -73310.9 -9534.36 -10691.5 -7.41651 
13026 2 21.2634 0.348497 6.46474 5.99744 -157741 -149949 1607.29 -86796.6 15381 -9384.8 -7.41689 
13202 2 23.2471 8.97075 6.44016 6.00081 -141817 -165468 29254 -66040.5 25893 -27719.1 -7.41931 
13203 2 23.9761 7.7542 6.43905 5.99319 -129388 -165284 -25132.1 -60062.1 4317.39 -15006.3 -7.41582 
13204 2 23.2863 6.51577 6.44208 5.9969 -149088 -155051 22563 -80774.7 25470.4 -22559.6 -7.41869 
13205 2 24.0158 5.29942 6.44326 5.99059 -139785 -156686 -17366.5 -75185 -430.341 -14040.9 -7.41607 
13206 2 23.3271 4.06048 6.44815 5.99354 -153647 -149719 14812.4 -92744.9 23292.4 -17830.7 -7.41799 
13207 2 24.057 2.84431 6.45116 5.98831 -148433 -151946 -9305.8 -86027.3 -6859.81 -13710.2 -7.41641 
13208 2 23.3688 1.60508 6.45704 5.99173 -156189 -148526 6196.58 -99676.7 19477.5 -14363.1 -7.4173 
13209 2 24.099 0.389013 6.46056 5.98709 -155890 -149845 -1108.69 -90470.4 -14220.6 -14658.1 -7.41686 
13385 2 26.0847 9.00814 6.43331 5.98538 -117049 -175759 -31004.8 -69028.1 5455.83 -18394.9 -7.4158 
13386 2 25.3938 7.77038 6.43515 5.99124 -141171 -163095 27843 -90361.2 29636.2 -27724 -7.41925 
13387 2 26.123 6.5538 6.43614 5.98269 -129827 -163615 -22574.7 -86123 1699.23 -17857.8 -7.41604 
13388 2 25.4335 5.31536 6.43996 5.98762 -148145 -153750 19740.6 -104572 27837.6 -23576.8 -7.4185 
13389 2 26.1632 4.09897 6.44281 5.98031 -140836 -155609 -14000.8 -100298 -4107.14 -17317.4 -7.41634 
13390 2 25.4745 2.86008 6.44832 5.98503 -152859 -149409 10966.9 -114752 24085.8 -20004.9 -7.41775 
13391 2 26.2046 1.64383 6.45201 5.97876 -150573 -151038 -5505.37 -108759 -11605.5 -17544.2 -7.41674 
13392 2 25.5165 0.404683 6.45803 5.98436 -155987 -148199 1719.14 -119130 18781.4 -17706.9 -7.41707 
13568 2 27.5024 9.02259 6.4305 5.98429 -129839 -174978 33616.5 -100591 32730 -31107.7 -7.41987 
13570 2 27.5407 6.56803 6.43371 5.98052 -139562 -162019 24979.1 -117099 31882.2 -28081.9 -7.41908 
13572 2 27.5808 4.11304 6.44043 5.97741 -146948 -153548 15897.8 -130735 28714.4 -25034.2 -7.41827 
13574 2 27.6221 1.65777 6.44939 5.97591 -152694 -149066 6501.02 -139010 23571.5 -22570.2 -7.41752 
2589 1 28.4739 6.92674 2.94219 5.97836 -190205 -128024 27377.7 106410 33456 -29844.3 -7.41927 
2591 1 28.4346 4.47024 2.93897 5.97333 -177380 -137321 17320.2 121454 31033.6 -26359.9 -7.41845 
2593 1 28.3938 2.01425 2.94102 5.97122 -165708 -143979 7698.48 131063 25125.6 -23289.3 -7.41771 
2771 1 30.618 8.13292 2.95318 5.97528 -202240 -115124 34133.1 119914 35008.4 -31221.4 -7.41995 
2772 1 29.8913 6.91451 2.94677 5.98448 -179722 -127506 -27967.2 139068 -1816.57 -22066.8 -7.41593 
2773 1 30.5802 5.67582 2.94762 5.968 -187950 -127278 23404.7 138015 34524.3 -28705.4 -7.41907 
2774 1 29.852 4.45817 2.94344 5.9761 -170200 -136753 -17965.6 153538 -7723.98 -22809.9 -7.41626 
2775 1 30.5405 3.21936 2.9461 5.96401 -174063 -137023 12968.6 151583 30180.2 -26174.4 -7.41823 
2776 1 29.8112 2.00228 2.94485 5.97019 -162061 -142769 -8066.6 162509 -14787.2 -23503.3 -7.41671 
2777 1 30.4996 0.763462 2.94904 5.96149 -160693 -145101 3183.82 157796 22804.5 -24119.6 -7.41752 
2954 1 32.0353 8.12252 2.95827 5.98338 -190873 -115798 -34243.3 151752 -694.342 -21639.3 -7.41578 
2955 1 32.7246 6.88409 2.95855 5.96445 -198765 -115609 29900.3 152088 36613.2 -29075.5 -7.41972 
2956 1 31.9975 5.66565 2.95273 5.97332 -179547 -127661 -23688.3 169545 -5599.47 -23073.4 -7.41612 
2957 1 32.6864 4.4271 2.95411 5.95806 -183647 -127746 18781.6 169518 34227.8 -27302.7 -7.41881 
2958 1 31.9579 3.20937 2.95061 5.96525 -168974 -136718 -13328.8 182690 -12186.6 -24217.5 -7.41653 
2959 1 32.6465 1.97078 2.95327 5.9553 -168926 -138592 8251.51 180402 28183.3 -25641 -7.41799 
2960 1 31.9171 0.753558 2.95245 5.96 -159127 -143675 -3260.62 188426 -19624.5 -25372.8 -7.41707 
3137 1 34.8679 8.09497 2.97041 5.96278 -209029 -103953 36549.9 162728 37339.6 -27874.1 -7.42038 
3138 1 34.1419 6.8757 2.96376 5.97218 -189403 -117774 -29842.2 182056 -4012.19 -21846.7 -7.41594 
3139 1 34.8313 5.63744 2.96409 5.9542 -193680 -117533 24965.1 183659 36983.8 -26757.6 -7.41943 
3140 1 34.1037 4.41899 2.95891 5.96222 -177378 -129022 -18954.6 199117 -9639.73 -23339.5 -7.41634 
3141 1 34.7927 3.18065 2.96 5.94901 -177952 -130131 13781.1 199127 32740.9 -25630.6 -7.41851 
3142 1 34.0639 1.96286 2.95706 5.95473 -165847 -138165 -8472.52 209541 -16774.7 -24665.4 -7.41684 
3143 1 34.7528 0.724579 2.95888 5.9468 -162271 -142123 3264.04 206043 25377 -24654.4 -7.41771 
3320 1 36.2851 8.08818 2.97519 5.97236 -198601 -108040 -36275 190251 -3040.45 -19755.3 -7.41573 
3321 1 36.9751 6.85023 2.97479 5.9524 -202455 -107437 31339.9 193168 38422.3 -25026.2 -7.42005 
3322 1 36.2486 5.63103 2.96866 5.96109 -186265 -120762 -24935.5 210919 -7419.42 -21370.9 -7.41613 
3323 1 36.938 4.39299 2.96842 5.94499 -186946 -120984 19660 212909 36177.8 -24344.6 -7.41907 
3324 1 36.2101 3.17454 2.96384 5.95164 -173685 -131632 -13966.2 226080 -13760.8 -22776.7 -7.41659 
3325 1 36.8993 1.9365 2.96408 5.94139 -171211 -134283 8570.91 225151 30286.8 -23721.9 -7.41817 
3326 1 36.1703 0.718625 2.96154 5.94512 -161130 -141086 -3432.17 232573 -21276.4 -24109.3 -7.41719 
13569 2 28.2314 7.80578 6.43148 5.97486 -117799 -174578 -28467.7 -97476.6 2852.66 -20556.7 -7.41597 
13571 2 28.2703 5.35142 6.43626 5.97197 -131030 -163119 -19232.2 -114751 -1849.02 -20415.9 -7.41627 
13573 2 28.3108 2.89657 6.44393 5.96996 -143074 -154915 -10229.8 -127488 -8781.22 -20402.5 -7.41664 
13575 2 28.3522 0.44134 6.45247 5.9695 -154463 -149204 -1378.24 -133252 -17088.1 -21235.2 -7.41711 
13751 2 30.3412 9.05509 6.42968 5.96806 -104744 -187399 -34883.5 -107907 3018.58 -21651 -7.41582 
13752 2 29.6492 7.81815 6.43029 5.97296 -128762 -172908 30666.4 -128709 34754.8 -30636.7 -7.41972 
13753 2 30.3785 6.60129 6.43257 5.96448 -119825 -173355 -25051.9 -127932 -414.865 -22240.6 -7.41615 
13754 2 29.688 5.36359 6.4349 5.96937 -138618 -160842 21121.1 -145678 32720.6 -28472.2 -7.41885 
13755 2 30.4177 4.14689 6.43799 5.96171 -133972 -161936 -15430.5 -144864 -6252.27 -22450.9 -7.41651 
13756 2 29.7283 2.90859 6.44195 5.96717 -147059 -152730 11447.9 -158296 28268.2 -26321 -7.41802 
13757 2 30.4584 1.69195 6.44487 5.96051 -147580 -152915 -6131.02 -155458 -14177.6 -22905 -7.41695 
13758 2 29.7697 0.453297 6.44957 5.96724 -154603 -147419 1720.17 -164223 21989.6 -24604.6 -7.41729 
13934 2 31.7591 9.06561 6.42966 5.9659 -116812 -184520 36783.8 -138184 36156.5 -31243.2 -7.42039 
13935 2 32.488 7.84849 6.4318 5.95857 -108376 -184590 -31302.1 -138841 155.07 -22555.7 -7.41596 
13936 2 31.7962 6.61154 6.43238 5.96172 -128819 -170069 26759.3 -158170 35589.8 -29976.5 -7.41949 
13937 2 32.5257 5.39458 6.435 5.95488 -123957 -170939 -21105.3 -159385 -4335.17 -23239.9 -7.41633 
13938 2 31.8354 4.15693 6.43707 5.95873 -139554 -158734 16672.3 -175004 32337.1 -28386.2 -7.41858 
13939 2 32.5652 2.94005 6.43959 5.95262 -139229 -159012 -11279.2 -174891 -11309.8 -23691.5 -7.41677 
13940 2 31.8759 1.70187 6.44278 5.95791 -149634 -150367 6680.18 -185712 26725.6 -26767.5 -7.41776 
13941 2 32.6058 0.484927 6.44415 5.95263 -154303 -148650 -1646.47 -182370 -19867.7 -24403.6 -7.41731 
14117 2 34.5989 9.09308 6.43329 5.95461 -97794.2 -194851 -37741 -146704 16.794 -21565 -7.41572 
14118 2 33.9058 7.85692 6.43256 5.95519 -118663 -179396 32798.2 -167229 37110.7 -29770.9 -7.42014 
14119 2 34.635 6.63967 6.43477 5.95001 -114156 -180228 -27126.1 -170161 -3141.88 -22739.7 -7.41611 
14120 2 33.9435 5.40272 6.43513 5.95132 -131035 -165950 22274 -187756 35384.9 -28743.1 -7.41919 
14121 2 34.6731 4.18558 6.43716 5.94667 -130474 -166671 -16787 -190130 -8809.51 -23411.1 -7.41654 
14122 2 33.9829 2.94798 6.4386 5.94945 -142976 -155165 11900.8 -203421 30906 -27411.4 -7.41828 
14123 2 34.7126 1.73082 6.43974 5.94535 -146481 -154041 -6777.23 -202933 -16706.8 -23945.4 -7.41706 
14124 2 34.0233 0.492784 6.44174 5.95043 -154607 -146398 1716.83 -211100 24313 -26005.2 -7.41748 
14300 2 36.0168 9.09991 6.43455 5.95032 -109344 -187694 39081.4 -172623 37365.5 -28353.3 -7.42079 
14301 2 36.7455 7.88233 6.43649 5.94723 -105370 -188528 -33329.2 -176880 -2625.9 -21218.2 -7.41586 
14302 2 36.0528 6.64609 6.43562 5.94555 -122631 -173168 28235.7 -196011 37242.4 -27757 -7.41982 
14303 2 36.782 5.42866 6.43719 5.94281 -121968 -174252 -22558.8 -200411 -6870.85 -22167.7 -7.41629 
14304 2 36.0907 4.1917 6.43712 5.94248 -135713 -160704 17458.8 -215928 34242.4 -26732.7 -7.41884 
14305 2 36.8203 2.9743 6.43794 5.94011 -138532 -160596 -12150.7 -218305 -13654.4 -22740.2 -7.41679 
14306 2 36.1302 1.73678 6.43845 5.9421 -148533 -150352 6939.25 -228964 28585.5 -25452.8 -7.41794 
14307 2 36.8597 0.519248 6.43786 5.94002 -155041 -147441 -1918.87 -227113 -22088.5 -23201.2 -7.4174 
3503 1 39.1178 8.06521 2.98512 5.95225 -209430 -98727.7 37755.3 198127 38686.4 -22672.9 -7.42065 
3504 1 38.3923 6.84528 2.97874 5.96142 -193966 -113010 -31158.9 217711 -5714.35 -18884.6 -7.4159 
3505 1 39.0823 5.60756 2.9775 5.94309 -194889 -112348 25763.8 221365 38396.4 -22255.1 -7.41964 
3506 1 38.3553 4.38844 2.97192 5.95058 -181493 -124788 -19730.5 237077 -10903.9 -20229.8 -7.41634 
3507 1 39.045 3.15067 2.97079 5.93729 -179663 -126001 14198.9 238523 34305.3 -21922.6 -7.41866 
3508 1 38.3167 1.93222 2.96673 5.94206 -168733 -135131 -8782.79 248786 -17910.6 -21476.8 -7.41689 
3509 1 39.0063 0.694541 2.96595 5.93517 -163880 -139608 3264.94 246177 27120.1 -21644.1 -7.41779 
3686 1 40.535 8.06144 2.98816 5.9628 -199896 -106263 -37469.3 219840 -4602.6 -16305.7 -7.41567 
3687 1 41.2257 6.82407 2.9863 5.94286 -201236 -104936 31971.7 224813 39447.8 -19821.3 -7.42022 
3688 1 40.4996 5.6043 2.98033 5.95103 -188257 -118432 -25696 242580 -8473.4 -17490.8 -7.41609 
3689 1 41.1898 4.36683 2.97817 5.93518 -186902 -118167 20057.2 246157 37271.9 -19650.8 -7.41919 
3690 1 40.4623 3.14779 2.97313 5.94105 -175960 -129274 -14329.3 259304 -14548.8 -18568.8 -7.4166 
3691 1 41.1523 1.91034 2.97114 5.93139 -172280 -131805 8716.88 259408 31531 -19568.3 -7.41823 
3692 1 40.4237 0.691875 2.96754 5.93395 -163082 -138964 -3417.67 266378 -22065.4 -19671.9 -7.41724 
3869 1 43.368 8.04222 2.9941 5.94403 -205516 -99098.6 38166.6 224089 39481.9 -17355.5 -7.42078 
3870 1 42.6429 6.82183 2.98826 5.9526 -193489 -113088 -31768.6 243379 -6635.27 -14864.6 -7.41586 
3871 1 43.3337 5.58469 2.98541 5.93486 -192903 -111677 26049.8 248626 39148.7 -17239 -7.41973 
3872 1 42.6071 4.36508 2.97992 5.9416 -182050 -123941 -20040.7 264101 -11497.9 -15732.8 -7.41632 
3873 1 43.2975 3.12787 2.97701 5.92906 -179382 -124484 14369.9 266760 35125.6 -17264.8 -7.4187 
3874 1 42.5696 1.90891 2.97251 5.93293 -170180 -133618 -8799.63 276753 -18410.3 -16612.7 -7.41691 
3875 1 43.26 0.671771 2.96995 5.92718 -165155 -137658 3280.64 274944 28089.1 -17313.5 -7.41779 
4052 1 44.7852 8.04078 2.99508 5.955 -196648 -108787 -37845.6 240101 -5436.88 -12489.7 -7.41563 
4053 1 45.4767 6.80397 2.99189 5.93589 -196955 -106427 32086 246708 39992.2 -14892 -7.42027 
4054 1 44.751 5.58381 2.98641 5.9433 -186849 -119444 -25868 264072 -8987.42 -13156.4 -7.41607 
4055 1 45.4419 4.34689 2.98288 5.92847 -185071 -118279 20155.8 268908 37784.2 -14948.5 -7.41921 
4056 1 44.7148 3.12742 2.97793 5.9335 -176095 -128873 -14308.8 281581 -14910.3 -13801.6 -7.41659 
4057 1 45.4055 1.89047 2.97464 5.92492 -172412 -130681 8777.25 282602 32118.3 -15093.5 -7.41822 
4058 1 44.6774 0.671543 2.97071 5.92654 -164499 -137500 -3199.49 289038 -22442.3 -14578.9 -7.41726 
14483 2 38.8572 9.12288 6.4391 5.94558 -97949.2 -194812 -39575.9 -179887 -2654.67 -19052.1 -7.4156 
14484 2 38.1633 7.88732 6.43758 5.94166 -115189 -179346 34428.4 -199840 37948.2 -25909.5 -7.42045 
14485 2 38.892 6.66954 6.43879 5.94015 -114506 -180880 -28503.8 -205919 -5559.15 -20227.9 -7.41602 
14486 2 38.1997 5.43322 6.4377 5.9374 -128708 -166166 23328.3 -223215 36579.9 -25136.7 -7.41944 
14487 2 38.9289 4.21554 6.4382 5.93632 -131159 -167050 -17705.8 -228059 -10967.9 -20934.7 -7.4165 
14488 2 38.2379 2.97858 6.43752 5.93552 -142110 -154713 12452.1 -241184 32241.5 -24012.9 -7.41846 