  728  728   50    1
  0.2410786E+02  0.2346690E-08  0.4064587E-08  0.1840000E-08  0.5000000E-15
   1.0000000000000000E-004
  CAR 
 unknown system                          
   2912      1   1824

  0.1262379E-14  0.1262379E-14  0.1262379E-14  0.1000000E+01
    1      -20.598083   1.000000
    2      -20.533320   1.000000
    3      -20.532153   1.000000
    4      -20.460169   1.000000
    5      -20.402126   1.000000
    6      -20.401868   1.000000
    7      -20.395815   1.000000
    8      -20.394777   1.000000
    9      -20.339402   1.000000
   10      -20.338813   1.000000
   11      -20.337357   1.000000
   12      -20.336176   1.000000
   13      -20.334841   1.000000
   14      -20.334185   1.000000
   15      -20.265703   1.000000
   16      -20.265582   1.000000
   17      -20.203706   1.000000
   18      -20.203099   1.000000
   19      -20.201647   1.000000
   20      -20.200419   1.000000
   21      -20.199088   1.000000
   22      -20.198392   1.000000
   23      -20.141578   1.000000
   24      -20.141552   1.000000
   25      -20.141253   1.000000
   26      -20.141208   1.000000
   27      -20.011674   1.000000
   28      -20.011629   1.000000
   29      -20.007479   1.000000
   30      -20.007308   1.000000
   31      -20.007104   1.000000
   32      -20.007043   1.000000
   33      -19.878504   1.000000
   34      -19.878499   1.000000
   35      -19.817178   1.000000
   36      -19.817138   1.000000
   37      -19.816428   1.000000
   38      -19.816390   1.000000
   39      -19.816373   1.000000
   40      -19.816162   1.000000
   41      -19.752224   1.000000
   42      -19.752038   1.000000
   43      -19.751071   1.000000
   44      -19.750838   1.000000
   45      -19.685783   1.000000
   46      -19.685743   1.000000
   47      -19.685030   1.000000
   48      -19.685001   1.000000
   49      -19.684971   1.000000
   50      -19.684759   1.000000
   51      -19.621444   1.000000
   52      -19.621252   1.000000
   53      -19.620142   1.000000
   54      -19.619898   1.000000
   55      -19.558623   1.000000
   56      -19.558445   1.000000
   57      -19.557666   1.000000
   58      -19.557627   1.000000
   59      -19.557306   1.000000
   60      -19.557142   1.000000
   61      -19.429364   1.000000
   62      -19.429194   1.000000
   63      -19.428402   1.000000
   64      -19.428369   1.000000
   65      -19.428047   1.000000
   66      -19.427881   1.000000
   67      -19.364669   1.000000
   68      -19.364625   1.000000
   69      -19.364352   1.000000
   70      -19.364313   1.000000
   71      -19.237092   1.000000
   72      -19.237062   1.000000
   73      -19.236837   1.000000
   74      -19.236731   1.000000
   75      -19.235508   1.000000
   76      -19.235386   1.000000
   77      -19.235132   1.000000
   78      -19.235023   1.000000
   79      -19.109042   1.000000
   80      -19.108919   1.000000
   81      -19.108599   1.000000
   82      -19.108478   1.000000
   83      -18.979427   1.000000
   84      -18.979394   1.000000
   85      -18.854922   1.000000
   86      -18.854889   1.000000
   87      -18.849636   1.000000
   88      -18.849574   1.000000
   89      -18.788580   1.000000
   90      -18.788458   1.000000
   91      -18.788384   1.000000
   92      -18.788306   1.000000
   93      -18.786533   1.000000
   94      -18.786175   1.000000
   95      -18.785733   1.000000
   96      -18.785592   1.000000
   97      -18.785238   1.000000
   98      -18.785145   1.000000
   99      -18.784991   1.000000
  100      -18.784846   1.000000
  101      -18.726177   1.000000
  102      -18.726112   1.000000
  103      -18.665819   1.000000
  104      -18.665708   1.000000
  105      -18.665636   1.000000
  106      -18.665548   1.000000
  107      -18.663789   1.000000
  108      -18.663412   1.000000
  109      -18.662594   1.000000
  110      -18.662456   1.000000
  111      -18.662098   1.000000
  112      -18.661998   1.000000
  113      -18.661845   1.000000
  114      -18.661686   1.000000
  115      -18.594869   1.000000
  116      -18.594769   1.000000
  117      -18.594768   1.000000
  118      -18.594748   1.000000
  119      -18.473493   1.000000
  120      -18.473398   1.000000
  121      -18.473397   1.000000
  122      -18.473372   1.000000
  123      -18.279085   1.000000
  124      -18.278969   1.000000
  125      -18.277674   1.000000
  126      -18.277625   1.000000
  127      -18.277564   1.000000
  128      -18.277510   1.000000
  129      -18.214353   1.000000
  130      -18.214204   1.000000
  131      -18.214141   1.000000
  132      -18.213959   1.000000
  133      -18.160292   1.000000
  134      -18.160175   1.000000
  135      -18.158888   1.000000
  136      -18.158844   1.000000
  137      -18.158780   1.000000
  138      -18.158719   1.000000
  139      -18.096125   1.000000
  140      -18.095983   1.000000
  141      -18.095919   1.000000
  142      -18.095722   1.000000
  143      -18.088712   1.000000
  144      -18.088625   1.000000
  145      -18.088558   1.000000
  146      -18.088523   1.000000
  147      -17.971499   1.000000
  148      -17.971417   1.000000
  149      -17.971346   1.000000
  150      -17.971314   1.000000
  151      -17.836534   1.000000
  152      -17.836382   1.000000
  153      -17.836215   1.000000
  154      -17.836082   1.000000
  155      -17.721332   1.000000
  156      -17.721180   1.000000
  157      -17.721018   1.000000
  158      -17.720885   1.000000
  159      -17.523256   1.000000
  160      -17.523200   1.000000
  161      -17.523040   1.000000
  162      -17.522995   1.000000
  163      -17.520918   1.000000
  164      -17.520871   1.000000
  165      -17.463349   1.000000
  166      -17.463178   1.000000
  167      -17.459492   1.000000
  168      -17.459384   1.000000
  169      -17.458762   1.000000
  170      -17.458730   1.000000
  171      -17.410601   1.000000
  172      -17.410539   1.000000
  173      -17.410367   1.000000
  174      -17.410323   1.000000
  175      -17.408252   1.000000
  176      -17.408202   1.000000
  177      -17.351211   1.000000
  178      -17.351038   1.000000
  179      -17.347912   1.000000
  180      -17.347803   1.000000
  181      -17.346035   1.000000
  182      -17.345998   1.000000
  183      -17.276282   1.000000
  184      -17.276216   1.000000
  185      -17.276080   1.000000
  186      -17.276048   1.000000
  187      -17.274956   1.000000
  188      -17.274884   1.000000
  189      -17.274807   1.000000
  190      -17.274751   1.000000
  191      -17.273720   1.000000
  192      -17.273679   1.000000
  193      -17.273677   1.000000
  194      -17.273619   1.000000
  195      -17.165664   1.000000
  196      -17.165592   1.000000
  197      -17.165470   1.000000
  198      -17.165418   1.000000
  199      -17.164338   1.000000
  200      -17.164264   1.000000
  201      -17.164185   1.000000
  202      -17.164137   1.000000
  203      -17.163104   1.000000
  204      -17.163077   1.000000
  205      -17.163065   1.000000
  206      -17.163001   1.000000
  207      -16.966310   1.000000
  208      -16.966286   1.000000
  209      -16.966248   1.000000
  210      -16.966197   1.000000
  211      -16.858275   1.000000
  212      -16.858228   1.000000
  213      -16.858189   1.000000
  214      -16.858157   1.000000
  215      -16.723755   1.000000
  216      -16.723538   1.000000
  217      -16.723481   1.000000
  218      -16.723348   1.000000
  219      -16.617924   1.000000
  220      -16.617710   1.000000
  221      -16.617631   1.000000
  222      -16.617495   1.000000
  223      -16.602046   1.000000
  224      -16.601953   1.000000
  225      -16.601861   1.000000
  226      -16.601824   1.000000
  227      -16.542811   1.000000
  228      -16.542761   1.000000
  229      -16.540294   1.000000
  230      -16.540216   1.000000
  231      -16.539954   1.000000
  232      -16.539919   1.000000
  233      -16.497178   1.000000
  234      -16.497081   1.000000
  235      -16.496988   1.000000
  236      -16.496951   1.000000
  237      -16.438346   1.000000
  238      -16.438297   1.000000
  239      -16.435835   1.000000
  240      -16.435754   1.000000
  241      -16.435498   1.000000
  242      -16.435462   1.000000
  243      -16.362881   1.000000
  244      -16.362839   1.000000
  245      -16.362815   1.000000
  246      -16.362798   1.000000
  247      -16.260117   1.000000
  248      -16.260071   1.000000
  249      -16.260034   1.000000
  250      -16.260018   1.000000
  251      -16.003172   1.000000
  252      -16.003143   1.000000
  253      -16.003046   1.000000
  254      -16.003010   1.000000
  255      -15.903490   1.000000
  256      -15.903463   1.000000
  257      -15.903367   1.000000
  258      -15.903333   1.000000
  259      -15.902853   1.000000
  260      -15.901237   1.000000
  261      -15.849448   1.000000
  262      -15.849352   1.000000
  263      -15.849249   1.000000
  264      -15.849016   1.000000
  265      -15.847142   1.000000
  266      -15.846866   1.000000
  267      -15.846460   1.000000
  268      -15.846250   1.000000
  269      -15.845781   1.000000
  270      -15.844110   1.000000
  271      -15.843363   1.000000
  272      -15.842185   1.000000
  273      -15.805983   1.000000
  274      -15.804914   1.000000
  275      -15.756345   1.000000
  276      -15.755980   1.000000
  277      -15.753899   1.000000
  278      -15.753689   1.000000
  279      -15.750415   1.000000
  280      -15.749791   1.000000
  281      -15.748958   1.000000
  282      -15.748875   1.000000
  283      -15.747370   1.000000
  284      -15.746971   1.000000
  285      -15.745908   1.000000
  286      -15.744427   1.000000
  287      -15.671339   1.000000
  288      -15.671220   1.000000
  289      -15.669651   1.000000
  290      -15.669575   1.000000
  291      -15.575595   1.000000
  292      -15.575537   1.000000
  293      -15.574478   1.000000
  294      -15.574461   1.000000
  295      -15.539484   1.000000
  296      -15.539262   1.000000
  297      -15.444152   1.000000
  298      -15.443929   1.000000
  299      -15.389745   1.000000
  300      -15.389686   1.000000
  301      -15.389576   1.000000
  302      -15.389535   1.000000
  303      -15.385864   1.000000
  304      -15.385773   1.000000
  305      -15.385685   1.000000
  306      -15.385558   1.000000
  307      -15.384906   1.000000
  308      -15.384756   1.000000
  309      -15.383102   1.000000
  310      -15.382968   1.000000
  311      -15.294898   1.000000
  312      -15.294848   1.000000
  313      -15.294767   1.000000
  314      -15.294715   1.000000
  315      -15.292015   1.000000
  316      -15.291887   1.000000
  317      -15.291719   1.000000
  318      -15.291639   1.000000
  319      -15.291536   1.000000
  320      -15.291452   1.000000
  321      -15.290166   1.000000
  322      -15.290099   1.000000
  323      -15.289146   1.000000
  324      -15.289038   1.000000
  325      -15.229911   1.000000
  326      -15.229822   1.000000
  327      -15.204282   1.000000
  328      -15.204178   1.000000
  329      -15.060590   1.000000
  330      -15.060489   1.000000
  331      -15.060038   1.000000
  332      -15.059886   1.000000
  333      -14.991020   1.000000
  334      -14.990773   1.000000
  335      -14.988997   1.000000
  336      -14.988605   1.000000
  337      -14.898315   1.000000
  338      -14.898017   1.000000
  339      -14.897397   1.000000
  340      -14.897060   1.000000
  341      -14.802937   1.000000
  342      -14.802831   1.000000
  343      -14.802787   1.000000
  344      -14.802715   1.000000
  345      -14.517629   1.000000
  346      -14.517602   1.000000
  347      -14.511108   1.000000
  348      -14.511059   1.000000
  349      -14.509518   1.000000
  350      -14.509424   1.000000
  351      -14.435037   1.000000
  352      -14.434934   1.000000
  353      -14.434052   1.000000
  354      -14.433929   1.000000
  355      -14.433790   1.000000
  356      -14.433704   1.000000
  357      -14.429247   1.000000
  358      -14.429163   1.000000
  359      -14.428941   1.000000
  360      -14.428857   1.000000
  361      -14.246910   1.000000
  362      -14.246815   1.000000
  363      -14.173124   1.000000
  364      -14.173005   1.000000
  365      -14.160411   1.000000
  366      -14.160290   1.000000
  367      -14.005783   1.000000
  368      -14.005732   1.000000
  369      -14.005692   1.000000
  370      -14.005602   1.000000
  371      -13.987102   1.000000
  372      -13.986850   1.000000
  373      -13.968249   1.000000
  374      -13.968035   1.000000
  375      -13.728620   1.000000
  376      -13.728454   1.000000
  377      -13.728400   1.000000
  378      -13.728389   1.000000
  379      -13.642026   1.000000
  380      -13.641847   1.000000
  381      -13.641588   1.000000
  382      -13.641446   1.000000
  383      -13.641200   1.000000
  384      -13.640104   1.000000
  385      -13.589929   1.000000
  386      -13.588569   1.000000
  387      -13.587972   1.000000
  388      -13.587896   1.000000
  389      -13.565575   1.000000
  390      -13.565394   1.000000
  391      -13.565285   1.000000
  392      -13.562843   1.000000
  393      -13.562580   1.000000
  394      -13.561820   1.000000
  395      -13.514383   1.000000
  396      -13.512953   1.000000
  397      -13.511470   1.000000
  398      -13.508557   1.000000
  399      -13.438920   1.000000
  400      -13.438898   1.000000
  401      -13.438690   1.000000
  402      -13.438671   1.000000
  403      -13.437039   1.000000
  404      -13.437008   1.000000
  405      -13.436670   1.000000
  406      -13.436392   1.000000
  407      -13.435334   1.000000
  408      -13.435258   1.000000
  409      -13.435246   1.000000
  410      -13.435167   1.000000
  411      -13.426918   1.000000
  412      -13.426793   1.000000
  413      -13.426176   1.000000
  414      -13.426084   1.000000
  415      -13.363470   1.000000
  416      -13.363386   1.000000
  417      -13.363099   1.000000
  418      -13.362999   1.000000
  419      -13.362853   1.000000
  420      -13.362766   1.000000
  421      -13.359647   1.000000
  422      -13.359509   1.000000
  423      -13.359466   1.000000
  424      -13.359216   1.000000
  425      -13.358780   1.000000
  426      -13.358696   1.000000
  427      -13.317150   1.000000
  428      -13.317030   1.000000
  429      -13.274660   1.000000
  430      -13.274551   1.000000
  431      -13.211435   1.000000
  432      -13.211365   1.000000
  433      -13.208128   1.000000
  434      -13.208013   1.000000
  435      -13.128396   1.000000
  436      -13.128293   1.000000
  437      -13.124264   1.000000
  438      -13.124243   1.000000
  439      -13.051881   1.000000
  440      -13.051819   1.000000
  441      -13.049234   1.000000
  442      -13.048956   1.000000
  443      -13.047221   1.000000
  444      -13.047092   1.000000
  445      -13.027751   1.000000
  446      -13.027724   1.000000
  447      -13.026901   1.000000
  448      -13.026784   1.000000
  449      -13.025676   1.000000
  450      -13.025653   1.000000
  451      -12.839688   1.000000
  452      -12.839546   1.000000
  453      -12.838853   1.000000
  454      -12.838611   1.000000
  455      -12.838438   1.000000
  456      -12.838381   1.000000
  457      -12.838187   1.000000
  458      -12.837994   1.000000
  459      -12.835729   1.000000
  460      -12.835639   1.000000
  461      -12.835618   1.000000
  462      -12.835563   1.000000
  463      -12.645434   1.000000
  464      -12.645367   1.000000
  465      -12.645268   1.000000
  466      -12.645217   1.000000
  467      -12.592429   1.000000
  468      -12.592339   1.000000
  469      -12.592323   1.000000
  470      -12.592290   1.000000
  471      -12.516232   1.000000
  472      -12.516166   1.000000
  473      -12.516121   1.000000
  474      -12.516103   1.000000
  475      -12.503145   1.000000
  476      -12.503117   1.000000
  477      -12.502911   1.000000
  478      -12.502901   1.000000
  479      -12.423274   1.000000
  480      -12.423249   1.000000
  481      -12.423078   1.000000
  482      -12.422975   1.000000
  483      -12.362004   1.000000
  484      -12.361969   1.000000
  485      -12.361862   1.000000
  486      -12.361759   1.000000
  487      -12.257259   1.000000
  488      -12.256997   1.000000
  489      -12.256019   1.000000
  490      -12.255786   1.000000
  491      -12.242887   1.000000
  492      -12.242827   1.000000
  493      -12.242657   1.000000
  494      -12.242599   1.000000
  495      -12.010636   1.000000
  496      -12.010565   1.000000
  497      -12.010298   1.000000
  498      -12.010263   1.000000
  499      -11.848604   1.000000
  500      -11.848505   1.000000
  501      -11.848489   1.000000
  502      -11.848401   1.000000
  503      -11.465918   1.000000
  504      -11.465909   1.000000
  505      -11.442351   1.000000
  506      -11.442275   1.000000
  507      -11.442205   1.000000
  508      -11.442140   1.000000
  509      -11.436710   1.000000
  510      -11.436672   1.000000
  511      -11.436345   1.000000
  512      -11.436327   1.000000
  513      -11.436240   1.000000
  514      -11.436173   1.000000
  515      -11.435982   1.000000
  516      -11.435926   1.000000
  517      -11.416323   1.000000
  518      -11.416280   1.000000
  519      -11.400899   1.000000
  520      -11.400713   1.000000
  521      -11.398983   1.000000
  522      -11.398817   1.000000
  523      -11.372487   1.000000
  524      -11.372423   1.000000
  525      -11.372362   1.000000
  526      -11.372301   1.000000
  527      -11.364362   1.000000
  528      -11.364300   1.000000
  529      -11.364264   1.000000
  530      -11.364167   1.000000
  531      -11.362869   1.000000
  532      -11.362759   1.000000
  533      -11.362746   1.000000
  534      -11.362640   1.000000
  535      -11.361719   1.000000
  536      -11.361605   1.000000
  537      -11.361371   1.000000
  538      -11.361254   1.000000
  539      -11.359483   1.000000
  540      -11.359455   1.000000
  541      -11.359179   1.000000
  542      -11.359051   1.000000
  543      -11.356392   1.000000
  544      -11.356149   1.000000
  545      -11.356038   1.000000
  546      -11.356022   1.000000
  547      -11.355598   1.000000
  548      -11.355370   1.000000
  549      -11.354978   1.000000
  550      -11.354930   1.000000
  551      -11.233417   1.000000
  552      -11.233400   1.000000
  553      -11.233332   1.000000
  554      -11.233315   1.000000
  555      -11.070901   1.000000
  556      -11.070845   1.000000
  557      -11.068478   1.000000
  558      -11.068436   1.000000
  559      -11.067190   1.000000
  560      -11.067105   1.000000
  561      -11.064053   1.000000
  562      -11.063993   1.000000
  563      -11.063809   1.000000
  564      -11.063778   1.000000
  565      -11.062856   1.000000
  566      -11.062768   1.000000
  567      -11.062739   1.000000
  568      -11.062698   1.000000
  569      -11.060678   1.000000
  570      -11.060600   1.000000
  571      -11.060576   1.000000
  572      -11.060464   1.000000
  573      -11.028525   1.000000
  574      -11.028465   1.000000
  575      -11.026491   1.000000
  576      -11.026450   1.000000
  577      -11.020659   1.000000
  578      -11.020562   1.000000
  579      -10.961516   1.000000
  580      -10.961502   1.000000
  581      -10.961462   1.000000
  582      -10.961413   1.000000
  583      -10.838857   1.000000
  584      -10.838810   1.000000
  585      -10.838284   1.000000
  586      -10.838234   1.000000
  587      -10.582740   1.000000
  588      -10.582715   1.000000
  589      -10.582023   1.000000
  590      -10.582002   1.000000
  591      -10.401133   1.000000
  592      -10.401041   1.000000
  593      -10.399512   1.000000
  594      -10.399380   1.000000
  595      -10.376004   1.000000
  596      -10.375808   1.000000
  597      -10.375697   1.000000
  598      -10.375551   1.000000
  599      -10.290940   1.000000
  600      -10.290928   1.000000
  601      -10.290885   1.000000
  602      -10.290803   1.000000
  603      -10.284441   1.000000
  604      -10.284354   1.000000
  605      -10.284181   1.000000
  606      -10.284022   1.000000
  607      -10.218807   1.000000
  608      -10.218640   1.000000
  609      -10.218023   1.000000
  610      -10.217870   1.000000
  611      -10.135822   1.000000
  612      -10.135745   1.000000
  613      -10.135648   1.000000
  614      -10.135645   1.000000
  615      -10.079748   1.000000
  616      -10.079695   1.000000
  617      -10.073366   1.000000
  618      -10.073312   1.000000
  619      -10.072930   1.000000
  620      -10.072868   1.000000
  621      -10.031366   1.000000
  622      -10.031311   1.000000
  623      -10.024903   1.000000
  624      -10.024840   1.000000
  625      -10.024753   1.000000
  626      -10.024664   1.000000
  627       -9.970874   1.000000
  628       -9.970827   1.000000
  629       -9.970786   1.000000
  630       -9.970720   1.000000
  631       -9.901878   1.000000
  632       -9.901865   1.000000
  633       -9.901838   1.000000
  634       -9.901820   1.000000
  635       -9.900889   1.000000
  636       -9.900811   1.000000
  637       -9.900088   1.000000
  638       -9.900062   1.000000
  639       -9.896431   1.000000
  640       -9.896378   1.000000
  641       -9.895967   1.000000
  642       -9.895920   1.000000
  643       -9.618449   1.000000
  644       -9.618410   1.000000
  645       -9.618293   1.000000
  646       -9.618269   1.000000
  647       -9.617362   1.000000
  648       -9.617314   1.000000
  649       -9.616724   1.000000
  650       -9.616708   1.000000
  651       -9.607119   1.000000
  652       -9.607036   1.000000
  653       -9.606965   1.000000
  654       -9.606898   1.000000
  655       -9.489406   1.000000
  656       -9.489379   1.000000
  657       -9.489364   1.000000
  658       -9.489347   1.000000
  659       -9.381060   1.000000
  660       -9.381030   1.000000
  661       -9.380927   1.000000
  662       -9.380899   1.000000
  663       -9.326932   1.000000
  664       -9.326879   1.000000
  665       -9.326844   1.000000
  666       -9.326791   1.000000
  667       -9.315397   1.000000
  668       -9.315234   1.000000
  669       -9.315159   1.000000
  670       -9.315029   1.000000
  671       -9.314634   1.000000
  672       -9.314466   1.000000
  673       -9.314279   1.000000
  674       -9.314233   1.000000
  675       -9.193153   1.000000
  676       -9.193033   1.000000
  677       -9.192922   1.000000
  678       -9.192853   1.000000
  679       -9.131082   1.000000
  680       -9.130815   1.000000
  681       -9.130760   1.000000
  682       -9.130541   1.000000
  683       -9.112407   1.000000
  684       -9.112377   1.000000
  685       -9.112112   1.000000
  686       -9.111987   1.000000
  687       -9.087165   1.000000
  688       -9.087058   1.000000
  689       -9.087033   1.000000
  690       -9.086892   1.000000
  691       -9.082960   1.000000
  692       -9.082745   1.000000
  693       -9.076151   1.000000
  694       -9.036055   1.000000
  695       -9.035980   1.000000
  696       -9.035926   1.000000
  697       -9.035852   1.000000
  698       -9.032875   1.000000
  699       -9.032649   1.000000
  700       -8.997307   1.000000
  701       -8.996653   1.000000
  702       -8.985011   1.000000
  703       -8.984888   1.000000
  704       -8.984842   1.000000
  705       -8.984731   1.000000
  706       -8.975840   1.000000
  707       -8.975777   1.000000
  708       -8.971472   1.000000
  709       -8.971443   1.000000
  710       -8.971354   1.000000
  711       -8.971315   1.000000
  712       -8.935733   1.000000
  713       -8.935672   1.000000
  714       -8.930547   1.000000
  715       -8.930520   1.000000
  716       -8.930427   1.000000
  717       -8.930397   1.000000
  718       -8.919356   1.000000
  719       -8.919274   1.000000
  720       -8.919250   1.000000
  721       -8.919184   1.000000
  722       -8.917496   1.000000
  723       -8.917429   1.000000
  724       -8.917307   1.000000
  725       -8.917282   1.000000
  726       -8.914319   1.000000
  727       -8.914263   1.000000
  728       -8.914124   1.000000
  729       -8.914107   1.000000
  730       -8.910723   1.000000
  731       -8.910643   1.000000
  732       -8.910591   1.000000
  733       -8.910547   1.000000
  734       -8.839180   1.000000
  735       -8.839112   1.000000
  736       -8.830957   1.000000
  737       -8.830911   1.000000
  738       -8.829347   1.000000
  739       -8.829278   1.000000
  740       -8.763000   1.000000
  741       -8.762486   1.000000
  742       -8.760991   1.000000
  743       -8.760520   1.000000
  744       -8.759248   1.000000
  745       -8.759205   1.000000
  746       -8.746309   1.000000
  747       -8.746291   1.000000
  748       -8.746034   1.000000
  749       -8.745969   1.000000
  750       -8.648789   1.000000
  751       -8.648706   1.000000
  752       -8.648547   1.000000
  753       -8.648495   1.000000
  754       -8.526647   1.000000
  755       -8.526480   1.000000
  756       -8.526360   1.000000
  757       -8.526207   1.000000
  758       -8.441512   1.000000
  759       -8.441475   1.000000
  760       -8.441444   1.000000
  761       -8.441405   1.000000
  762       -8.371025   1.000000
  763       -8.370964   1.000000
  764       -8.350510   1.000000
  765       -8.350474   1.000000
  766       -8.350418   1.000000
  767       -8.350414   1.000000
  768       -8.285317   1.000000
  769       -8.285234   1.000000
  770       -8.285152   1.000000
  771       -8.285125   1.000000
  772       -8.283096   1.000000
  773       -8.283064   1.000000
  774       -8.282786   1.000000
  775       -8.282754   1.000000
  776       -8.279238   1.000000
  777       -8.279149   1.000000
  778       -8.278950   1.000000
  779       -8.278889   1.000000
  780       -8.270682   1.000000
  781       -8.270620   1.000000
  782       -8.270524   1.000000
  783       -8.270417   1.000000
  784       -8.199462   1.000000
  785       -8.199404   1.000000
  786       -8.199245   1.000000
  787       -8.199194   1.000000
  788       -8.155724   1.000000
  789       -8.138910   1.000000
  790       -8.138807   1.000000
  791       -8.138246   1.000000
  792       -8.138197   1.000000
  793       -8.137792   1.000000
  794       -8.137653   1.000000
  795       -8.137489   1.000000
  796       -8.137447   1.000000
  797       -8.137373   1.000000
  798       -8.137326   1.000000
  799       -8.079166   1.000000
  800       -8.078219   1.000000
  801       -8.060737   1.000000
  802       -8.060563   1.000000
  803       -8.060451   1.000000
  804       -8.060316   1.000000
  805       -8.027628   1.000000
  806       -8.027581   1.000000
  807       -7.998669   1.000000
  808       -7.998626   1.000000
  809       -7.953676   1.000000
  810       -7.953603   1.000000
  811       -7.953527   1.000000
  812       -7.953438   1.000000
  813       -7.927799   1.000000
  814       -7.927761   1.000000
  815       -7.926007   1.000000
  816       -7.925712   1.000000
  817       -7.925451   1.000000
  818       -7.925391   1.000000
  819       -7.925358   1.000000
  820       -7.925276   1.000000
  821       -7.923906   1.000000
  822       -7.923878   1.000000
  823       -7.916816   1.000000
  824       -7.916764   1.000000
  825       -7.916741   1.000000
  826       -7.916669   1.000000
  827       -7.852310   1.000000
  828       -7.852129   1.000000
  829       -7.850643   1.000000
  830       -7.849461   1.000000
  831       -7.848203   1.000000
  832       -7.847152   1.000000
  833       -7.838285   1.000000
  834       -7.838235   1.000000
  835       -7.838160   1.000000
  836       -7.838120   1.000000
  837       -7.830717   1.000000
  838       -7.830501   1.000000
  839       -7.829497   1.000000
  840       -7.829479   1.000000
  841       -7.829264   1.000000
  842       -7.829165   1.000000
  843       -7.826539   1.000000
  844       -7.826465   1.000000
  845       -7.826385   1.000000
  846       -7.826248   1.000000
  847       -7.825459   1.000000
  848       -7.825423   1.000000
  849       -7.825372   1.000000
  850       -7.825287   1.000000
  851       -7.824600   1.000000
  852       -7.824489   1.000000
  853       -7.824427   1.000000
  854       -7.824316   1.000000
  855       -7.812216   1.000000
  856       -7.812144   1.000000
  857       -7.812063   1.000000
  858       -7.812004   1.000000
  859       -7.801360   1.000000
  860       -7.801196   1.000000
  861       -7.801030   1.000000
  862       -7.800974   1.000000
  863       -7.776878   1.000000
  864       -7.776753   1.000000
  865       -7.776417   1.000000
  866       -7.776355   1.000000
  867       -7.709947   1.000000
  868       -7.709841   1.000000
  869       -7.709702   1.000000
  870       -7.709659   1.000000
  871       -7.709580   1.000000
  872       -7.709449   1.000000
  873       -7.709405   1.000000
  874       -7.709358   1.000000
  875       -7.698813   1.000000
  876       -7.698808   1.000000
  877       -7.698776   1.000000
  878       -7.698730   1.000000
  879       -7.687095   1.000000
  880       -7.687067   1.000000
  881       -7.682575   1.000000
  882       -7.682557   1.000000
  883       -7.622907   1.000000
  884       -7.622692   1.000000
  885       -7.622650   1.000000
  886       -7.622329   1.000000
  887       -7.601436   1.000000
  888       -7.601376   1.000000
  889       -7.601165   1.000000
  890       -7.601093   1.000000
  891       -7.543450   1.000000
  892       -7.543405   1.000000
  893       -7.543309   1.000000
  894       -7.543279   1.000000
  895       -7.472064   1.000000
  896       -7.471988   1.000000
  897       -7.452433   1.000000
  898       -7.452011   1.000000
  899       -7.451992   1.000000
  900       -7.451921   1.000000
  901       -7.451904   1.000000