       N       E                     dE             d eps       ncg     rms          rms(c)
DAV:   1     0.213183689829E+05    0.21318E+05   -0.11223E+06  4068   0.107E+03
DAV:   2    -0.387588053734E+04   -0.25194E+05   -0.24326E+05  4956   0.300E+02
DAV:   3    -0.706293056288E+04   -0.31871E+04   -0.31647E+04  4272   0.111E+02
DAV:   4    -0.716620864299E+04   -0.10328E+03   -0.10281E+03  4512   0.232E+01
DAV:   5    -0.716994905309E+04   -0.37404E+01   -0.37357E+01  4992   0.363E+00    0.122E+02
RMM:   6    -0.683605555097E+04    0.33389E+03   -0.32597E+02  3648   0.108E+01    0.721E+01
RMM:   7    -0.671841972058E+04    0.11764E+03   -0.51437E+02  3648   0.134E+01    0.176E+01
RMM:   8    -0.671645751650E+04    0.19622E+01   -0.10662E+01  3702   0.214E+00    0.160E+00
RMM:   9    -0.671621229822E+04    0.24522E+00   -0.81259E-01  3870   0.507E-01    0.985E-01
RMM:  10    -0.671600620740E+04    0.20609E+00   -0.31908E-01  3648   0.294E-01    0.571E-01
RMM:  11    -0.671597104032E+04    0.35167E-01   -0.11367E-01  3700   0.149E-01    0.333E-01
RMM:  12    -0.671600844012E+04   -0.37400E-01   -0.88054E-02  3648   0.120E-01    0.215E-01
RMM:  13    -0.671605514812E+04   -0.46708E-01   -0.11440E-02  3656   0.540E-02    0.132E-01
RMM:  14    -0.671607728743E+04   -0.22139E-01   -0.35323E-03  3660   0.303E-02    0.582E-02
RMM:  15    -0.671611455661E+04   -0.37269E-01   -0.40046E-03  3648   0.260E-02    0.536E-02
RMM:  16    -0.671612378347E+04   -0.92269E-02   -0.71241E-04  3713   0.119E-02    0.164E-02
RMM:  17    -0.671612987803E+04   -0.60946E-02   -0.16210E-04  3753   0.604E-03    0.786E-03
RMM:  18    -0.671613206508E+04   -0.21871E-02   -0.42984E-05  3662   0.460E-03    0.265E-03
RMM:  19    -0.671613225609E+04   -0.19101E-03   -0.55882E-06  3648   0.168E-03    0.317E-03
RMM:  20    -0.671613228732E+04   -0.31225E-04   -0.10737E-06  3648   0.785E-04    0.465E-04
RMM:  21    -0.671613228826E+04   -0.94430E-06   -0.36304E-08  2201   0.134E-04    0.146E-04
RMM:  22    -0.671613228866E+04   -0.39593E-06   -0.16808E-08  1489   0.878E-05    0.450E-05
RMM:  23    -0.671613228868E+04   -0.21711E-07   -0.52971E-09  1158   0.649E-05
   1 F= -.67789506E+04 E0= -.67789506E+04  d E =-.677895E+04
       N       E                     dE             d eps       ncg     rms          rms(c)
DAV:   1    -0.671630330518E+04   -0.17102E+00   -0.36962E+01  3780   0.487E+00    0.234E+00
RMM:   2    -0.671615245633E+04    0.15085E+00   -0.83537E-01  3648   0.676E-01    0.143E+00
RMM:   3    -0.671603542643E+04    0.11703E+00   -0.29190E-01  3648   0.326E-01    0.331E-01
RMM:   4    -0.671603526585E+04    0.16058E-03   -0.12329E-02  3783   0.700E-02    0.199E-01
RMM:   5    -0.671603898686E+04   -0.37210E-02   -0.25588E-03  3722   0.319E-02    0.600E-02
RMM:   6    -0.671603976948E+04   -0.78262E-03   -0.61452E-04  3679   0.146E-02    0.280E-02
RMM:   7    -0.671604222644E+04   -0.24570E-02   -0.31747E-04  3674   0.908E-03    0.203E-02
RMM:   8    -0.671604356306E+04   -0.13366E-02   -0.26021E-04  3648   0.709E-03    0.913E-03
RMM:   9    -0.671604428090E+04   -0.71784E-03   -0.12755E-04  3648   0.444E-03    0.654E-03
RMM:  10    -0.671604453799E+04   -0.25709E-03   -0.29983E-05  3681   0.276E-03    0.465E-03
RMM:  11    -0.671604455209E+04   -0.14108E-04   -0.40967E-06  3681   0.986E-04    0.207E-03
RMM:  12    -0.671604461685E+04   -0.64754E-04   -0.35063E-06  3648   0.154E-03    0.137E-03
RMM:  13    -0.671604462977E+04   -0.12924E-04   -0.23419E-07  2513   0.404E-04    0.821E-04
RMM:  14    -0.671604464597E+04   -0.16197E-04   -0.34939E-07  2557   0.450E-04    0.355E-04
RMM:  15    -0.671604465561E+04   -0.96380E-05   -0.92183E-08  2257   0.235E-04    0.132E-04
RMM:  16    -0.671604465740E+04   -0.17947E-05   -0.30495E-08  2144   0.126E-04    0.140E-04
RMM:  17    -0.671604465762E+04   -0.22253E-06   -0.74512E-09  1287   0.664E-05    0.659E-05
RMM:  18    -0.671604465762E+04    0.40745E-08   -0.16774E-09   864   0.500E-05
   2 F= -.67788019E+04 E0= -.67788019E+04  d E =0.148700E+00
       N       E                     dE             d eps       ncg     rms          rms(c)
DAV:   1    -0.671632934362E+04   -0.28469E+00   -0.14040E+01  3744   0.299E+00    0.145E+00
RMM:   2    -0.671627019855E+04    0.59145E-01   -0.29657E-01  3648   0.410E-01    0.878E-01
RMM:   3    -0.671622672220E+04    0.43476E-01   -0.11807E-01  3648   0.207E-01    0.188E-01
RMM:   4    -0.671622648674E+04    0.23546E-03   -0.43275E-03  3821   0.411E-02    0.121E-01
RMM:   5    -0.671622703654E+04   -0.54980E-03   -0.10682E-03  3723   0.206E-02    0.420E-02
RMM:   6    -0.671622726574E+04   -0.22920E-03   -0.23513E-04  3669   0.903E-03    0.176E-02
RMM:   7    -0.671622811797E+04   -0.85223E-03   -0.95054E-05  3703   0.536E-03    0.123E-02
RMM:   8    -0.671622867193E+04   -0.55396E-03   -0.75173E-05  3648   0.412E-03    0.635E-03
RMM:   9    -0.671622901352E+04   -0.34159E-03   -0.45366E-05  3648   0.289E-03    0.453E-03
RMM:  10    -0.671622916030E+04   -0.14678E-03   -0.10674E-05  3669   0.147E-03    0.340E-03
RMM:  11    -0.671622916980E+04   -0.95016E-05   -0.19778E-06  3592   0.681E-04    0.145E-03
RMM:  12    -0.671622922017E+04   -0.50370E-04   -0.11437E-06  3086   0.670E-04    0.860E-04
RMM:  13    -0.671622922912E+04   -0.89455E-05   -0.96302E-08  2202   0.214E-04    0.557E-04
RMM:  14    -0.671622923940E+04   -0.10287E-04   -0.13776E-07  2307   0.216E-04    0.238E-04
RMM:  15    -0.671622924328E+04   -0.38753E-05   -0.46357E-08  2139   0.124E-04    0.119E-04
RMM:  16    -0.671622924371E+04   -0.42951E-06   -0.18910E-08  1616   0.877E-05    0.795E-05
RMM:  17    -0.671622924383E+04   -0.12311E-06   -0.61275E-09  1072   0.590E-05    0.485E-05
RMM:  18    -0.671622924385E+04   -0.23399E-07   -0.29505E-09   756   0.480E-05
   3 F= -.67790266E+04 E0= -.67790266E+04  d E =-.759618E-01
       N       E                     dE             d eps       ncg     rms          rms(c)
DAV:   1    -0.671622551539E+04    0.37284E-02   -0.14468E-01  3744   0.304E-01    0.147E-01
RMM:   2    -0.671622492699E+04    0.58840E-03   -0.30178E-03  3648   0.415E-02    0.894E-02
RMM:   3    -0.671622448941E+04    0.43758E-03   -0.11913E-03  3648   0.208E-02    0.196E-02
RMM:   4    -0.671622448603E+04    0.33829E-05   -0.41935E-05  3807   0.413E-03    0.123E-02
RMM:   5    -0.671622449526E+04   -0.92273E-05   -0.10349E-05  3722   0.204E-03    0.416E-03
RMM:   6    -0.671622450087E+04   -0.56173E-05   -0.23736E-06  3655   0.905E-04    0.177E-03
RMM:   7    -0.671622451501E+04   -0.14137E-04   -0.10610E-06  2606   0.555E-04    0.121E-03
RMM:   8    -0.671622452391E+04   -0.88986E-05   -0.82690E-07  2558   0.423E-04    0.584E-04
RMM:   9    -0.671622452907E+04   -0.51670E-05   -0.60432E-07  2557   0.324E-04    0.447E-04
RMM:  10    -0.671622453055E+04   -0.14736E-05   -0.63050E-08  2159   0.140E-04    0.227E-04
RMM:  11    -0.671622453110E+04   -0.55402E-06   -0.43595E-08  1713   0.104E-04    0.135E-04
RMM:  12    -0.671622453196E+04   -0.85530E-06   -0.11021E-08  1704   0.820E-05    0.747E-05
RMM:  13    -0.671622453228E+04   -0.32189E-06   -0.92207E-09  1401   0.722E-05    0.423E-05
RMM:  14    -0.671622453239E+04   -0.10821E-06   -0.36192E-09  1090   0.609E-05    0.299E-05
RMM:  15    -0.671622453242E+04   -0.31316E-07   -0.32711E-09   825   0.539E-05
   4 F= -.67790261E+04 E0= -.67790261E+04  d E =-.755066E-01
       N       E                     dE             d eps       ncg     rms          rms(c)
DAV:   1    -0.671659513286E+04   -0.37060E+00   -0.14609E+01  3768   0.287E+00    0.193E+00
RMM:   2    -0.671643943784E+04    0.15570E+00   -0.24441E-01  3648   0.359E-01    0.111E+00
RMM:   3    -0.671635159225E+04    0.87846E-01   -0.22324E-01  3648   0.270E-01    0.271E-01
RMM:   4    -0.671635320364E+04   -0.16114E-02   -0.49683E-03  3729   0.449E-02    0.148E-01
RMM:   5    -0.671635619685E+04   -0.29932E-02   -0.13214E-03  3696   0.235E-02    0.458E-02
RMM:   6    -0.671635680992E+04   -0.61308E-03   -0.25498E-04  3665   0.933E-03    0.221E-02
RMM:   7    -0.671635957805E+04   -0.27681E-02   -0.44063E-04  3648   0.894E-03    0.144E-02
RMM:   8    -0.671636020292E+04   -0.62487E-03   -0.12535E-04  3648   0.519E-03    0.639E-03
RMM:   9    -0.671636071669E+04   -0.51377E-03   -0.95111E-05  3648   0.388E-03    0.564E-03
RMM:  10    -0.671636082660E+04   -0.10991E-03   -0.79490E-06  3723   0.171E-03    0.224E-03
RMM:  11    -0.671636087794E+04   -0.51345E-04   -0.46124E-06  3586   0.121E-03    0.206E-03
RMM:  12    -0.671636092642E+04   -0.48478E-04   -0.17584E-06  3200   0.113E-03    0.167E-03
RMM:  13    -0.671636094097E+04   -0.14548E-04   -0.41570E-07  2557   0.579E-04    0.822E-04
RMM:  14    -0.671636095430E+04   -0.13335E-04   -0.22378E-07  2457   0.346E-04    0.361E-04
RMM:  15    -0.671636096068E+04   -0.63765E-05   -0.65281E-08  2148   0.199E-04    0.205E-04
RMM:  16    -0.671636096182E+04   -0.11413E-05   -0.16609E-08  1581   0.869E-05    0.869E-05
RMM:  17    -0.671636096181E+04    0.13853E-07   -0.55737E-09  1109   0.645E-05
   5 F= -.67790926E+04 E0= -.67790926E+04  d E =-.664892E-01
       N       E                     dE             d eps       ncg     rms          rms(c)
DAV:   1    -0.671636135573E+04   -0.39391E-03   -0.67715E-01  3744   0.618E-01    0.415E-01
RMM:   2    -0.671635425714E+04    0.70986E-02   -0.11255E-02  3648   0.773E-02    0.240E-01
RMM:   3    -0.671635031523E+04    0.39419E-02   -0.10476E-02  3648   0.585E-02    0.579E-02
RMM:   4    -0.671635032131E+04   -0.60754E-05   -0.21743E-04  3717   0.948E-03    0.323E-02
RMM:   5    -0.671635040003E+04   -0.78723E-04   -0.60028E-05  3693   0.511E-03    0.104E-02
RMM:   6    -0.671635043971E+04   -0.39684E-04   -0.11698E-05  3678   0.201E-03    0.484E-03
RMM:   7    -0.671635060632E+04   -0.16661E-03   -0.17945E-05  3648   0.197E-03    0.308E-03
RMM:   8    -0.671635064244E+04   -0.36121E-04   -0.47376E-06  3648   0.105E-03    0.140E-03
RMM:   9    -0.671635067867E+04   -0.36228E-04   -0.41924E-06  3522   0.841E-04    0.128E-03
RMM:  10    -0.671635068749E+04   -0.88240E-05   -0.33239E-07  2556   0.319E-04    0.476E-04
RMM:  11    -0.671635069191E+04   -0.44181E-05   -0.19796E-07  2465   0.220E-04    0.479E-04
RMM:  12    -0.671635069837E+04   -0.64541E-05   -0.79275E-08  2096   0.188E-04    0.385E-04
RMM:  13    -0.671635069991E+04   -0.15398E-05   -0.22550E-08  1975   0.109E-04    0.149E-04
RMM:  14    -0.671635070076E+04   -0.85274E-06   -0.17063E-08  1535   0.871E-05    0.742E-05
RMM:  15    -0.671635070102E+04   -0.25850E-06   -0.50648E-09  1244   0.620E-05    0.482E-05
RMM:  16    -0.671635070105E+04   -0.29104E-07   -0.58563E-09   955   0.559E-05
   6 F= -.67790949E+04 E0= -.67790949E+04  d E =-.687731E-01
       N       E                     dE             d eps       ncg     rms          rms(c)
DAV:   1    -0.671634167965E+04    0.90214E-02   -0.47602E-01  3696   0.518E-01    0.348E-01
RMM:   2    -0.671633670110E+04    0.49786E-02   -0.79102E-03  3648   0.648E-02    0.201E-01
RMM:   3    -0.671633393465E+04    0.27664E-02   -0.73673E-03  3648   0.490E-02    0.486E-02
RMM:   4    -0.671633393856E+04   -0.39063E-05   -0.15292E-04  3717   0.795E-03    0.270E-02
RMM:   5    -0.671633399552E+04   -0.56965E-04   -0.42118E-05  3691   0.428E-03    0.870E-03
RMM:   6    -0.671633402489E+04   -0.29369E-04   -0.82413E-06  3678   0.168E-03    0.405E-03
RMM:   7    -0.671633414554E+04   -0.12065E-03   -0.12652E-05  3648   0.164E-03    0.258E-03
RMM:   8    -0.671633417176E+04   -0.26216E-04   -0.33713E-06  3648   0.885E-04    0.117E-03
RMM:   9    -0.671633419777E+04   -0.26016E-04   -0.29394E-06  2950   0.703E-04    0.105E-03
RMM:  10    -0.671633420440E+04   -0.66242E-05   -0.26020E-07  2519   0.280E-04    0.368E-04
RMM:  11    -0.671633420742E+04   -0.30194E-05   -0.12049E-07  2273   0.184E-04    0.399E-04
RMM:  12    -0.671633421209E+04   -0.46698E-05   -0.53171E-08  2081   0.158E-04    0.321E-04
RMM:  13    -0.671633421325E+04   -0.11660E-05   -0.19339E-08  1828   0.101E-04    0.123E-04
RMM:  14    -0.671633421381E+04   -0.55507E-06   -0.13854E-08  1509   0.788E-05    0.647E-05
RMM:  15    -0.671633421397E+04   -0.15961E-06   -0.46406E-09  1059   0.603E-05    0.341E-05
RMM:  16    -0.671633421399E+04   -0.22992E-07   -0.40681E-09   810   0.533E-05
   7 F= -.67790917E+04 E0= -.67790917E+04  d E =-.655130E-01
