 vasp.5.4.4.18Apr17-6-g9f103f2a35 (build May 21 2018 20:56:50) complex           
 executed on             LinuxGNU date 2019.10.25  22:22:58
 running on   36 total cores
 distrk:  each k-point on   36 cores,    1 groups
 distr:  one band on NCORES_PER_BAND=   6 cores,    6 groups


--------------------------------------------------------------------------------------------------------


 INCAR:
 POTCAR:    PAW_PBE C 08Apr2002                   
 POTCAR:    PAW_PBE C 08Apr2002                   
   VRHFIN =C: s2p2                                                              
   LEXCH  = PE                                                                  
   EATOM  =   147.1560 eV,   10.8157 Ry                                         
                                                                                
   TITEL  = PAW_PBE C 08Apr2002                                                 
   LULTRA =        F    use ultrasoft PP ?                                      
   IUNSCR =        1    unscreen: 0-lin 1-nonlin 2-no                           
   RPACOR =    1.200    partial core radius                                     
   POMASS =   12.011; ZVAL   =    4.000    mass and valenz                      
   RCORE  =    1.500    outmost cutoff radius                                   
   RWIGS  =    1.630; RWIGS  =    0.863    wigner-seitz radius (au A)           
   ENMAX  =  400.000; ENMIN  =  300.000 eV                                      
   ICORE  =        2    local potential                                         
   LCOR   =        T    correct aug charges                                     
   LPAW   =        T    paw PP                                                  
   EAUG   =  644.873                                                            
   DEXC   =    0.000                                                            
   RMAX   =    1.529    core radius for proj-oper                               
   RAUG   =    1.300    factor for augmentation sphere                          
   RDEP   =    1.501    radius for radial grids                                 
   RDEPT  =    1.300    core radius for aug-charge                              
                                                                                
   Atomic configuration                                                         
    4 entries                                                                   
     n  l   j            E        occ.                                          
     1  0  0.50      -273.3789   2.0000                                         
     2  0  0.50       -13.7508   2.0000                                         
     2  1  0.50        -5.2854   2.0000                                         
     3  2  1.50        -5.4423   0.0000                                         
   Description                                                                  
     l       E           TYP  RCUT    TYP  RCUT                                 
     0    -13.7508458     23  1.200                                             
     0     -8.2022199     23  1.200                                             
     1     -5.2854383     23  1.500                                             
     1     34.0145650     23  1.500                                             
     2     -5.4423304      7  1.500                                             
  local pseudopotential read in
  partial core-charges read in
  partial kinetic energy density read in
  atomic valenz-charges read in
  non local Contribution for L=           0  read in
    real space projection operators read in
  non local Contribution for L=           0  read in
    real space projection operators read in
  non local Contribution for L=           1  read in
    real space projection operators read in
  non local Contribution for L=           1  read in
    real space projection operators read in
    PAW grid and wavefunctions read in

   number of l-projection  operators is LMAX  =           4
   number of lm-projection operators is LMMAX =           8

 Optimization of the real space projectors (new method)

 maximal supplied QI-value         = 25.13
 optimisation between [QCUT,QGAM] = [ 10.05, 20.36] = [ 28.30,116.06] Ry 
 Optimized for a Real-space Cutoff    1.30 Angstroem

   l    n(q)    QCUT    max X(q) W(low)/X(q) W(high)/X(q)  e(spline) 
   0      8    10.053   115.676    0.49E-03    0.72E-03    0.18E-06
   0      8    10.053    87.132    0.49E-03    0.71E-03    0.18E-06
   1      7    10.053     4.429    0.32E-03    0.31E-03    0.18E-06
   1      7    10.053     2.733    0.23E-03    0.19E-03    0.20E-06
  PAW_PBE C 08Apr2002                   :
 energy of atom  1       EATOM= -147.1560
 kinetic energy error for atom=    0.0288 (will be added to EATOM!!)


 POSCAR: POSCAR file written by OVITO            
  positions in cartesian coordinates
  No initial velocities read in
 exchange correlation table for  LEXCH =        8
   RHO(1)=    0.500       N(1)  =     2000
   RHO(2)=  100.500       N(2)  =     4000



--------------------------------------------------------------------------------------------------------


 ion  position               nearest neighbor table
   1  0.027  0.969  0.408-   8 1.42 338 1.42  40 1.42
   2  0.022  0.908  0.408- 338 1.42  10 1.42 339 1.42
   3  0.016  0.848  0.408-  12 1.42 340 1.42 339 1.42
   4  0.011  0.788  0.408-  14 1.42 341 1.42 340 1.42
   5  0.005  0.727  0.408- 341 1.42  16 1.42 342 1.42
   6  0.000  0.667  0.408-  18 1.42 343 1.42 342 1.42
   7  0.121  0.996  0.408-  41 1.42   8 1.42  73 1.42
   8  0.088  0.967  0.408-   1 1.42   7 1.42   9 1.42
   9  0.115  0.936  0.408-  43 1.42  10 1.42   8 1.42
  10  0.082  0.907  0.408-  11 1.42   2 1.42   9 1.42
  11  0.110  0.875  0.408-  10 1.42  45 1.42  12 1.42
  12  0.077  0.846  0.408-   3 1.42  11 1.42  13 1.42
  13  0.104  0.815  0.408-  47 1.42  14 1.42  12 1.42
  14  0.071  0.786  0.408-   4 1.42  15 1.42  13 1.42
  15  0.099  0.755  0.408-  14 1.42  49 1.42  16 1.42
  16  0.066  0.725  0.408-  17 1.42   5 1.42  15 1.42
  17  0.093  0.694  0.408-  16 1.42  51 1.42  18 1.42
  18  0.060  0.665  0.408-   6 1.42  17 1.42  19 1.42
  19  0.088  0.634  0.408-  53 1.42  20 1.42  18 1.42
  20  0.055  0.604  0.408- 344 1.42  21 1.42  19 1.42
  21  0.082  0.573  0.408-  20 1.42  55 1.42  22 1.42
  22  0.049  0.544  0.408- 346 1.42  21 1.42  23 1.42
  23  0.077  0.513  0.408-  24 1.42  57 1.42  22 1.42
  24  0.044  0.484  0.408-  23 1.42  25 1.42 348 1.42
  25  0.071  0.452  0.408-  26 1.42  24 1.42  59 1.42
  26  0.038  0.423  0.408-  27 1.42  25 1.42 350 1.42
  27  0.066  0.392  0.408-  26 1.42  28 1.42  61 1.42
  28  0.033  0.363  0.408-  27 1.42  29 1.42 352 1.42
  29  0.060  0.331  0.408-  30 1.42  28 1.42  63 1.42
  30  0.027  0.302  0.408-  31 1.42  29 1.42 354 1.42
  31  0.055  0.271  0.408-  30 1.42  32 1.42  65 1.42
  32  0.022  0.242  0.408-  33 1.42  31 1.42 356 1.42
  33  0.049  0.211  0.408-  32 1.42  34 1.42  67 1.42
  34  0.016  0.181  0.408-  33 1.42 358 1.42  35 1.42
  35  0.044  0.150  0.408-  69 1.42  36 1.42  34 1.42
  36  0.011  0.121  0.408-  37 1.42  35 1.42 360 1.42
  37  0.038  0.090  0.408-  36 1.42  71 1.42  38 1.42
  38  0.005  0.060  0.408- 362 1.42  37 1.42  39 1.42
  39  0.033  0.029  0.408-  73 1.42  40 1.42  38 1.42
  40  0.000  0.000  0.408- 364 1.42  39 1.42   1 1.42
  41  0.181  0.995  0.408-   7 1.42 106 1.42  42 1.42
  42  0.209  0.963  0.408-  75 1.42  43 1.42  41 1.42
  43  0.176  0.934  0.408-   9 1.42  42 1.42  44 1.42
  44  0.203  0.903  0.408-  77 1.42  45 1.42  43 1.42
  45  0.170  0.874  0.408-  46 1.42  11 1.42  44 1.42
  46  0.198  0.842  0.408-  45 1.42  79 1.42  47 1.42
  47  0.165  0.813  0.408-  13 1.42  46 1.42  48 1.42
  48  0.192  0.782  0.408-  81 1.42  49 1.42  47 1.42
  49  0.159  0.753  0.408-  50 1.42  15 1.42  48 1.42
  50  0.187  0.722  0.408-  49 1.42  83 1.42  51 1.42
  51  0.154  0.692  0.408-  52 1.42  17 1.42  50 1.42
  52  0.181  0.661  0.408-  51 1.42  85 1.42  53 1.42
  53  0.148  0.632  0.408-  19 1.42  52 1.42  54 1.42
  54  0.176  0.601  0.408-  87 1.42  55 1.42  53 1.42
  55  0.143  0.571  0.408-  56 1.42  21 1.42  54 1.42
  56  0.170  0.540  0.408-  55 1.42  89 1.42  57 1.42
  57  0.137  0.511  0.408-  23 1.42  56 1.42  58 1.42
  58  0.165  0.480  0.408-  59 1.42  57 1.42  91 1.42
  59  0.132  0.451  0.408-  58 1.42  60 1.42  25 1.42
  60  0.159  0.419  0.408-  61 1.42  59 1.42  93 1.42
  61  0.126  0.390  0.408-  62 1.42  60 1.42  27 1.42
  62  0.154  0.359  0.408-  61 1.42  63 1.42  95 1.42
  63  0.121  0.330  0.408-  62 1.42  64 1.42  29 1.42
  64  0.148  0.299  0.408-  65 1.42  63 1.42  97 1.42
  65  0.115  0.269  0.408-  66 1.42  64 1.42  31 1.42
  66  0.143  0.238  0.408-  65 1.42  67 1.42  99 1.42
  67  0.110  0.209  0.408-  66 1.42  68 1.42  33 1.42
  68  0.137  0.178  0.408-  69 1.42  67 1.42 101 1.42
  69  0.104  0.148  0.408-  68 1.42  35 1.42  70 1.42
  70  0.132  0.117  0.408- 103 1.42  71 1.42  69 1.42
  71  0.099  0.088  0.408-  72 1.42  37 1.42  70 1.42
  72  0.126  0.057  0.408-  71 1.42 105 1.42  73 1.42
  73  0.093  0.027  0.408-  39 1.42  72 1.42   7 1.42
  74  0.302  0.991  0.408- 139 1.42 107 1.42  75 1.42
  75  0.269  0.962  0.408-  42 1.42  74 1.42  76 1.42
  76  0.297  0.930  0.408- 109 1.42  77 1.42  75 1.42
  77  0.264  0.901  0.408-  44 1.42  76 1.42  78 1.42
  78  0.291  0.870  0.408- 111 1.42  79 1.42  77 1.42
  79  0.258  0.841  0.408-  80 1.42  46 1.42  78 1.42
  80  0.286  0.810  0.408-  79 1.42 113 1.42  81 1.42
  81  0.253  0.780  0.408-  48 1.42  80 1.42  82 1.42
  82  0.280  0.749  0.408- 115 1.42  83 1.42  81 1.42
  83  0.247  0.720  0.408-  84 1.42  50 1.42  82 1.42
  84  0.275  0.689  0.408-  83 1.42 117 1.42  85 1.42
  85  0.242  0.659  0.408-  86 1.42  52 1.42  84 1.42
  86  0.269  0.628  0.408- 119 1.42  85 1.42  87 1.42
  87  0.236  0.599  0.408-  54 1.42  86 1.42  88 1.42
  88  0.264  0.568  0.408- 121 1.42  89 1.42  87 1.42
  89  0.231  0.538  0.408-  90 1.42  56 1.42  88 1.42
  90  0.258  0.507  0.408-  91 1.42  89 1.42 123 1.42
  91  0.225  0.478  0.408-  90 1.42  92 1.42  58 1.42
  92  0.253  0.447  0.408-  93 1.42  91 1.42 125 1.42
  93  0.220  0.418  0.408-  92 1.42  94 1.42  60 1.42
  94  0.247  0.386  0.408-  95 1.42  93 1.42 127 1.42
  95  0.214  0.357  0.408-  96 1.42  94 1.42  62 1.42
  96  0.242  0.326  0.408-  95 1.42  97 1.42 129 1.42
  97  0.209  0.297  0.408-  96 1.42  98 1.42  64 1.42
  98  0.236  0.266  0.408-  99 1.42  97 1.42 131 1.42
  99  0.203  0.236  0.408- 100 1.42  98 1.42  66 1.42
 100  0.231  0.205  0.408-  99 1.42 101 1.42 133 1.42
 101  0.198  0.176  0.408- 100 1.42 102 1.42  68 1.42
 102  0.225  0.145  0.408- 135 1.42 103 1.42 101 1.42
 103  0.192  0.115  0.408-  70 1.42 102 1.42 104 1.42
 104  0.220  0.084  0.408- 137 1.42 105 1.42 103 1.42
 105  0.187  0.055  0.408- 106 1.42  72 1.42 104 1.42
 106  0.214  0.024  0.408- 105 1.42 139 1.42  41 1.42
 107  0.363  0.989  0.408- 108 1.42  74 1.42 172 1.42
 108  0.390  0.958  0.408- 107 1.42 141 1.42 109 1.42
 109  0.357  0.929  0.408-  76 1.42 108 1.42 110 1.42
 110  0.385  0.897  0.408- 143 1.42 111 1.42 109 1.42
 111  0.352  0.868  0.408-  78 1.42 110 1.42 112 1.42
 112  0.379  0.837  0.408- 145 1.42 113 1.42 111 1.42
 113  0.346  0.808  0.408- 114 1.42  80 1.42 112 1.42
 114  0.374  0.777  0.408- 113 1.42 147 1.42 115 1.42
 115  0.341  0.747  0.408-  82 1.42 114 1.42 116 1.42
 116  0.368  0.716  0.408- 149 1.42 117 1.42 115 1.42
 117  0.335  0.687  0.408- 118 1.42  84 1.42 116 1.42
 118  0.363  0.656  0.408- 117 1.42 151 1.42 119 1.42
 119  0.330  0.626  0.408-  86 1.42 118 1.42 120 1.42
 120  0.357  0.595  0.408- 153 1.42 121 1.42 119 1.42
 121  0.324  0.566  0.408-  88 1.42 120 1.42 122 1.42
 122  0.352  0.535  0.408- 155 1.42 123 1.42 121 1.42
 123  0.319  0.505  0.408- 124 1.42  90 1.42 122 1.42
 124  0.346  0.474  0.408- 125 1.42 123 1.42 157 1.42
 125  0.313  0.445  0.408- 124 1.42 126 1.42  92 1.42
 126  0.341  0.414  0.408- 127 1.42 125 1.42 159 1.42
 127  0.308  0.385  0.408- 126 1.42 128 1.42  94 1.42
 128  0.335  0.353  0.408- 129 1.42 127 1.42 161 1.42
 129  0.302  0.324  0.408- 130 1.42 128 1.42  96 1.42
 130  0.330  0.293  0.408- 129 1.42 131 1.42 163 1.42
 131  0.297  0.264  0.408- 130 1.42 132 1.42  98 1.42
 132  0.324  0.233  0.408- 133 1.42 131 1.42 165 1.42
 133  0.291  0.203  0.408- 134 1.42 132 1.42 100 1.42
 134  0.319  0.172  0.408- 133 1.42 135 1.42 167 1.42
 135  0.286  0.143  0.408- 134 1.42 102 1.42 136 1.42
 136  0.313  0.112  0.408- 169 1.42 137 1.42 135 1.42
 137  0.280  0.082  0.408- 104 1.42 136 1.42 138 1.42
 138  0.308  0.051  0.408- 171 1.42 139 1.42 137 1.42
 139  0.275  0.022  0.408-  74 1.42 106 1.42 138 1.42
 140  0.484  0.985  0.408- 173 1.42 141 1.42 205 1.42
 141  0.451  0.956  0.408- 142 1.42 108 1.42 140 1.42
 142  0.478  0.925  0.408- 141 1.42 175 1.42 143 1.42
 143  0.445  0.896  0.408- 110 1.42 142 1.42 144 1.42
 144  0.473  0.864  0.408- 177 1.42 145 1.42 143 1.42
 145  0.440  0.835  0.408- 112 1.42 144 1.42 146 1.42
 146  0.467  0.804  0.408- 179 1.42 147 1.42 145 1.42
 147  0.434  0.775  0.408- 148 1.42 114 1.42 146 1.42
 148  0.462  0.744  0.408- 147 1.42 181 1.42 149 1.42
 149  0.429  0.714  0.408- 116 1.42 148 1.42 150 1.42
 150  0.456  0.683  0.408- 183 1.42 151 1.42 149 1.42
 151  0.423  0.654  0.408- 152 1.42 118 1.42 150 1.42
 152  0.451  0.623  0.408- 151 1.42 185 1.42 153 1.42
 153  0.418  0.593  0.408- 120 1.42 152 1.42 154 1.42
 154  0.445  0.562  0.408- 187 1.42 155 1.42 153 1.42
 155  0.412  0.533  0.408- 122 1.42 154 1.42 156 1.42
 156  0.440  0.502  0.408- 189 1.42 157 1.42 155 1.42
 157  0.407  0.473  0.408- 158 1.42 124 1.42 156 1.42
 158  0.434  0.441  0.408- 159 1.42 157 1.42 191 1.42
 159  0.401  0.412  0.408- 158 1.42 160 1.42 126 1.42
 160  0.429  0.381  0.408- 161 1.42 159 1.42 193 1.42
 161  0.396  0.352  0.408- 162 1.42 160 1.42 128 1.42
 162  0.423  0.321  0.408- 161 1.42 163 1.42 195 1.42
 163  0.390  0.291  0.408- 164 1.42 162 1.42 130 1.42
 164  0.418  0.260  0.408- 163 1.42 165 1.42 197 1.42
 165  0.385  0.231  0.408- 164 1.42 166 1.42 132 1.42
 166  0.412  0.200  0.408- 167 1.42 165 1.42 199 1.42
 167  0.379  0.170  0.408- 168 1.42 166 1.42 134 1.42
 168  0.407  0.139  0.408- 167 1.42 169 1.42 201 1.42
 169  0.374  0.110  0.408- 168 1.42 136 1.42 170 1.42
 170  0.401  0.079  0.408- 203 1.42 171 1.42 169 1.42
 171  0.368  0.049  0.408- 138 1.42 170 1.42 172 1.42
 172  0.396  0.018  0.408- 205 1.42 107 1.42 171 1.42
 173  0.544  0.984  0.408- 140 1.42 238 1.42 174 1.42
 174  0.571  0.952  0.408- 207 1.42 175 1.42 173 1.42
 175  0.538  0.923  0.408- 176 1.42 142 1.42 174 1.42
 176  0.566  0.892  0.408- 175 1.42 209 1.42 177 1.42
 177  0.533  0.863  0.408- 144 1.42 176 1.42 178 1.42
 178  0.560  0.831  0.408- 211 1.42 179 1.42 177 1.42
 179  0.527  0.802  0.408- 146 1.42 178 1.42 180 1.42
 180  0.555  0.771  0.408- 213 1.42 181 1.42 179 1.42
 181  0.522  0.742  0.408- 182 1.42 148 1.42 180 1.42
 182  0.549  0.711  0.408- 181 1.42 215 1.42 183 1.42
 183  0.516  0.681  0.408- 150 1.42 182 1.42 184 1.42
 184  0.544  0.650  0.408- 217 1.42 185 1.42 183 1.42
 185  0.511  0.621  0.408- 186 1.42 152 1.42 184 1.42
 186  0.538  0.590  0.408- 185 1.42 219 1.42 187 1.42
 187  0.505  0.560  0.408- 154 1.42 186 1.42 188 1.42
 188  0.533  0.529  0.408- 221 1.42 189 1.42 187 1.42
 189  0.500  0.500  0.408- 156 1.42 188 1.42 190 1.42
 190  0.527  0.469  0.408- 191 1.42 223 1.42 189 1.42
 191  0.495  0.440  0.408- 192 1.42 190 1.42 158 1.42
 192  0.522  0.408  0.408- 191 1.42 193 1.42 225 1.42
 193  0.489  0.379  0.408- 192 1.42 194 1.42 160 1.42
 194  0.516  0.348  0.408- 195 1.42 193 1.42 227 1.42
 195  0.484  0.319  0.408- 196 1.42 194 1.42 162 1.42
 196  0.511  0.288  0.408- 195 1.42 197 1.42 229 1.42
 197  0.478  0.258  0.408- 198 1.42 196 1.42 164 1.42
 198  0.505  0.227  0.408- 197 1.42 199 1.42 231 1.42
 199  0.473  0.198  0.408- 198 1.42 200 1.42 166 1.42
 200  0.500  0.167  0.408- 201 1.42 199 1.42 233 1.42
 201  0.467  0.137  0.408- 200 1.42 202 1.42 168 1.42
 202  0.495  0.106  0.408- 201 1.42 235 1.42 203 1.42
 203  0.462  0.077  0.408- 170 1.42 202 1.42 204 1.42
 204  0.489  0.046  0.408- 237 1.42 205 1.42 203 1.42
 205  0.456  0.016  0.408- 172 1.42 204 1.42 140 1.42
 206  0.665  0.980  0.408- 239 1.42 207 1.42 271 1.42
 207  0.632  0.951  0.408- 174 1.42 206 1.42 208 1.42
 208  0.659  0.919  0.408- 241 1.42 209 1.42 207 1.42
 209  0.626  0.890  0.408- 210 1.42 176 1.42 208 1.42
 210  0.654  0.859  0.408- 209 1.42 243 1.42 211 1.42
 211  0.621  0.830  0.408- 178 1.42 210 1.42 212 1.42
 212  0.648  0.799  0.408- 245 1.42 213 1.42 211 1.42
 213  0.615  0.769  0.408- 180 1.42 214 1.42 212 1.42
 214  0.643  0.738  0.408- 213 1.42 247 1.42 215 1.42
 215  0.610  0.709  0.408- 216 1.42 182 1.42 214 1.42
 216  0.637  0.678  0.408- 215 1.42 249 1.42 217 1.42
 217  0.604  0.648  0.408- 184 1.42 216 1.42 218 1.42
 218  0.632  0.617  0.408- 251 1.42 219 1.42 217 1.42
 219  0.599  0.588  0.408- 220 1.42 186 1.42 218 1.42
 220  0.626  0.557  0.408- 219 1.42 253 1.42 221 1.42
 221  0.593  0.527  0.408- 188 1.42 220 1.42 222 1.42
 222  0.621  0.496  0.408- 255 1.42 223 1.42 221 1.42
 223  0.588  0.467  0.408- 190 1.42 222 1.42 224 1.42
 224  0.615  0.436  0.408- 225 1.42 223 1.42 257 1.42
 225  0.582  0.407  0.408- 226 1.42 224 1.42 192 1.42
 226  0.610  0.375  0.408- 225 1.42 227 1.42 259 1.42
 227  0.577  0.346  0.408- 226 1.42 228 1.42 194 1.42
 228  0.604  0.315  0.408- 229 1.42 227 1.42 261 1.42
 229  0.571  0.286  0.408- 230 1.42 228 1.42 196 1.42
 230  0.599  0.255  0.408- 229 1.42 231 1.42 263 1.42
 231  0.566  0.225  0.408- 232 1.42 230 1.42 198 1.42
 232  0.593  0.194  0.408- 231 1.42 233 1.42 265 1.42
 233  0.560  0.165  0.408- 232 1.42 234 1.42 200 1.42
 234  0.588  0.134  0.408- 235 1.42 233 1.42 267 1.42
 235  0.555  0.104  0.408- 234 1.42 236 1.42 202 1.42
 236  0.582  0.073  0.408- 235 1.42 269 1.42 237 1.42
 237  0.549  0.044  0.408- 204 1.42 236 1.42 238 1.42
 238  0.577  0.013  0.408- 271 1.42 173 1.42 237 1.42
 239  0.725  0.978  0.408- 206 1.42 304 1.42 240 1.42
 240  0.753  0.947  0.408- 273 1.42 241 1.42 239 1.42
 241  0.720  0.918  0.408- 208 1.42 240 1.42 242 1.42
 242  0.747  0.886  0.408- 275 1.42 243 1.42 241 1.42
 243  0.714  0.857  0.408- 244 1.42 210 1.42 242 1.42
 244  0.742  0.826  0.408- 243 1.42 277 1.42 245 1.42
 245  0.709  0.797  0.408- 212 1.42 244 1.42 246 1.42
 246  0.736  0.766  0.408- 279 1.42 247 1.42 245 1.42
 247  0.703  0.736  0.408- 248 1.42 214 1.42 246 1.42
 248  0.731  0.705  0.408- 247 1.42 281 1.42 249 1.42
 249  0.698  0.676  0.408- 250 1.42 216 1.42 248 1.42
 250  0.725  0.645  0.408- 249 1.42 283 1.42 251 1.42
 251  0.692  0.615  0.408- 218 1.42 250 1.42 252 1.42
 252  0.720  0.584  0.408- 285 1.42 253 1.42 251 1.42
 253  0.687  0.555  0.408- 254 1.42 220 1.42 252 1.42
 254  0.714  0.524  0.408- 253 1.42 287 1.42 255 1.42
 255  0.681  0.495  0.408- 222 1.42 254 1.42 256 1.42
 256  0.709  0.463  0.408- 257 1.42 289 1.42 255 1.42
 257  0.676  0.434  0.408- 256 1.42 258 1.42 224 1.42
 258  0.703  0.403  0.408- 259 1.42 257 1.42 291 1.42
 259  0.670  0.374  0.408- 260 1.42 258 1.42 226 1.42
 260  0.698  0.342  0.408- 259 1.42 261 1.42 293 1.42
 261  0.665  0.313  0.408- 260 1.42 262 1.42 228 1.42
 262  0.692  0.282  0.408- 263 1.42 261 1.42 295 1.42
 263  0.659  0.253  0.408- 264 1.42 262 1.42 230 1.42
 264  0.687  0.222  0.408- 263 1.42 265 1.42 297 1.42
 265  0.654  0.192  0.408- 264 1.42 266 1.42 232 1.42
 266  0.681  0.161  0.408- 267 1.42 265 1.42 299 1.42
 267  0.648  0.132  0.408- 266 1.42 268 1.42 234 1.42
 268  0.676  0.101  0.408- 301 1.42 269 1.42 267 1.42
 269  0.643  0.071  0.408- 270 1.42 236 1.42 268 1.42
 270  0.670  0.040  0.408- 269 1.42 303 1.42 271 1.42
 271  0.637  0.011  0.408- 238 1.42 270 1.42 206 1.42
 272  0.846  0.974  0.408- 337 1.42 305 1.42 273 1.42
 273  0.813  0.945  0.408- 240 1.42 272 1.42 274 1.42
 274  0.841  0.914  0.408- 307 1.42 275 1.42 273 1.42
 275  0.808  0.885  0.408- 242 1.42 274 1.42 276 1.42
 276  0.835  0.853  0.408- 309 1.42 277 1.42 275 1.42
 277  0.802  0.824  0.408- 278 1.42 244 1.42 276 1.42
 278  0.830  0.793  0.408- 277 1.42 311 1.42 279 1.42
 279  0.797  0.764  0.408- 246 1.42 278 1.42 280 1.42
 280  0.824  0.733  0.408- 313 1.42 281 1.42 279 1.42
 281  0.791  0.703  0.408- 282 1.42 248 1.42 280 1.42
 282  0.819  0.672  0.408- 281 1.42 315 1.42 283 1.42
 283  0.786  0.643  0.408- 284 1.42 250 1.42 282 1.42
 284  0.813  0.612  0.408- 317 1.42 283 1.42 285 1.42
 285  0.780  0.582  0.408- 252 1.42 284 1.42 286 1.42
 286  0.808  0.551  0.408- 319 1.42 287 1.42 285 1.42
 287  0.775  0.522  0.408- 288 1.42 254 1.42 286 1.42
 288  0.802  0.491  0.408- 287 1.42 321 1.42 289 1.42
 289  0.769  0.462  0.408- 256 1.42 288 1.42 290 1.42
 290  0.797  0.430  0.408- 291 1.42 323 1.42 289 1.42
 291  0.764  0.401  0.408- 290 1.42 292 1.42 258 1.42
 292  0.791  0.370  0.408- 293 1.42 291 1.42 325 1.42
 293  0.758  0.341  0.408- 294 1.42 292 1.42 260 1.42
 294  0.786  0.310  0.408- 293 1.42 295 1.42 327 1.42
 295  0.753  0.280  0.408- 294 1.42 296 1.42 262 1.42
 296  0.780  0.249  0.408- 297 1.42 295 1.42 329 1.42
 297  0.747  0.220  0.408- 298 1.42 296 1.42 264 1.42
 298  0.775  0.189  0.408- 297 1.42 299 1.42 331 1.42
 299  0.742  0.159  0.408- 298 1.42 300 1.42 266 1.42
 300  0.769  0.128  0.408- 301 1.42 299 1.42 333 1.42
 301  0.736  0.099  0.408- 300 1.42 268 1.42 302 1.42
 302  0.764  0.068  0.408- 335 1.42 303 1.42 301 1.42
 303  0.731  0.038  0.408- 304 1.42 270 1.42 302 1.42
 304  0.758  0.007  0.408- 303 1.42 337 1.42 239 1.42
 305  0.907  0.973  0.408- 306 1.42 272 1.42 364 1.42
 306  0.934  0.941  0.408- 305 1.42 338 1.42 307 1.42
 307  0.901  0.912  0.408- 274 1.42 306 1.42 308 1.42
 308  0.929  0.881  0.408- 339 1.42 309 1.42 307 1.42
 309  0.896  0.852  0.408- 276 1.42 308 1.42 310 1.42
 310  0.923  0.821  0.408- 340 1.42 311 1.42 309 1.42
 311  0.890  0.791  0.408- 312 1.42 278 1.42 310 1.42
 312  0.918  0.760  0.408- 311 1.42 341 1.42 313 1.42
 313  0.885  0.731  0.408- 280 1.42 312 1.42 314 1.42
 314  0.912  0.700  0.408- 342 1.42 315 1.42 313 1.42
 315  0.879  0.670  0.408- 316 1.42 282 1.42 314 1.42
 316  0.907  0.639  0.408- 315 1.42 343 1.42 317 1.42
 317  0.874  0.610  0.408- 284 1.42 316 1.42 318 1.42
 318  0.901  0.579  0.408- 345 1.42 319 1.42 317 1.42
 319  0.868  0.549  0.408- 286 1.42 318 1.42 320 1.42
 320  0.896  0.518  0.408- 347 1.42 321 1.42 319 1.42
 321  0.863  0.489  0.408- 322 1.42 288 1.42 320 1.42
 322  0.890  0.458  0.408- 321 1.42 349 1.42 323 1.42
 323  0.857  0.429  0.408- 290 1.42 322 1.42 324 1.42
 324  0.885  0.397  0.408- 325 1.42 323 1.42 351 1.42
 325  0.852  0.368  0.408- 326 1.42 324 1.42 292 1.42
 326  0.879  0.337  0.408- 325 1.42 327 1.42 353 1.42
 327  0.846  0.308  0.408- 328 1.42 326 1.42 294 1.42
 328  0.874  0.277  0.408- 327 1.42 329 1.42 355 1.42
 329  0.841  0.247  0.408- 328 1.42 330 1.42 296 1.42
 330  0.868  0.216  0.408- 331 1.42 329 1.42 357 1.42
 331  0.835  0.187  0.408- 332 1.42 330 1.42 298 1.42
 332  0.863  0.156  0.408- 331 1.42 333 1.42 359 1.42
 333  0.830  0.126  0.408- 332 1.42 334 1.42 300 1.42
 334  0.857  0.095  0.408- 335 1.42 333 1.42 361 1.42
 335  0.824  0.066  0.408- 334 1.42 302 1.42 336 1.42
 336  0.852  0.035  0.408- 363 1.42 337 1.42 335 1.42
 337  0.819  0.005  0.408- 272 1.42 304 1.42 336 1.42
 338  0.995  0.940  0.408-   2 1.42 306 1.42   1 1.42
 339  0.989  0.879  0.408- 308 1.42   2 1.42   3 1.42
 340  0.984  0.819  0.408- 310 1.42   3 1.42   4 1.42
 341  0.978  0.758  0.408-   5 1.42 312 1.42   4 1.42
 342  0.973  0.698  0.408- 314 1.42   5 1.42   6 1.42
 343  0.967  0.637  0.408- 344 1.42 316 1.42   6 1.42
 344  0.995  0.606  0.408-  20 1.42 343 1.42 345 1.42
 345  0.962  0.577  0.408- 318 1.42 344 1.42 346 1.42
 346  0.989  0.546  0.408-  22 1.42 347 1.42 345 1.42
 347  0.956  0.516  0.408- 320 1.42 346 1.42 348 1.42
 348  0.984  0.485  0.408- 349 1.42  24 1.42 347 1.42
 349  0.951  0.456  0.408- 350 1.42 322 1.42 348 1.42
 350  0.978  0.425  0.408- 351 1.42 349 1.42  26 1.42
 351  0.945  0.396  0.408- 350 1.42 352 1.42 324 1.42
 352  0.973  0.364  0.408- 353 1.42 351 1.42  28 1.42
 353  0.940  0.335  0.408- 354 1.42 352 1.42 326 1.42
 354  0.967  0.304  0.408- 353 1.42 355 1.42  30 1.42
 355  0.934  0.275  0.408- 356 1.42 354 1.42 328 1.42
 356  0.962  0.244  0.408- 355 1.42 357 1.42  32 1.42
 357  0.929  0.214  0.408- 356 1.42 358 1.42 330 1.42
 358  0.956  0.183  0.408- 359 1.42 357 1.42  34 1.42
 359  0.923  0.154  0.408- 360 1.42 358 1.42 332 1.42
 360  0.951  0.123  0.408- 359 1.42 361 1.42  36 1.42
 361  0.918  0.093  0.408- 360 1.42 362 1.42 334 1.42
 362  0.945  0.062  0.408-  38 1.42 363 1.42 361 1.42
 363  0.912  0.033  0.408- 336 1.42 362 1.42 364 1.42
 364  0.940  0.002  0.408-  40 1.42 305 1.42 363 1.42
 365  0.000  0.333  0.592- 393 1.42 723 1.42 724 1.42
 366  0.005  0.273  0.592- 395 1.42 724 1.42 725 1.42
 367  0.011  0.212  0.592- 726 1.42 397 1.42 725 1.42
 368  0.016  0.152  0.592- 399 1.42 726 1.42 727 1.42
 369  0.022  0.092  0.592- 728 1.42 401 1.42 727 1.42
 370  0.027  0.031  0.592- 403 1.42 728 1.42 371 1.42
 371  0.000  0.000  0.592- 702 1.42 372 1.42 370 1.42
 372  0.033  0.971  0.592- 405 1.42 371 1.42 373 1.42
 373  0.005  0.940  0.592- 704 1.42 374 1.42 372 1.42
 374  0.038  0.910  0.592- 375 1.42 407 1.42 373 1.42
 375  0.011  0.879  0.592- 374 1.42 376 1.42 706 1.42
 376  0.044  0.850  0.592- 409 1.42 375 1.42 377 1.42
 377  0.016  0.819  0.592- 378 1.42 708 1.42 376 1.42
 378  0.049  0.789  0.592- 377 1.42 379 1.42 411 1.42
 379  0.022  0.758  0.592- 380 1.42 378 1.42 710 1.42
 380  0.055  0.729  0.592- 381 1.42 379 1.42 413 1.42
 381  0.027  0.698  0.592- 380 1.42 382 1.42 712 1.42
 382  0.060  0.669  0.592- 381 1.42 383 1.42 415 1.42
 383  0.033  0.637  0.592- 384 1.42 382 1.42 714 1.42
 384  0.066  0.608  0.592- 385 1.42 383 1.42 417 1.42
 385  0.038  0.577  0.592- 384 1.42 386 1.42 716 1.42
 386  0.071  0.548  0.592- 387 1.42 385 1.42 419 1.42
 387  0.044  0.516  0.592- 386 1.42 388 1.42 718 1.42
 388  0.077  0.487  0.592- 387 1.42 421 1.42 389 1.42
 389  0.049  0.456  0.592- 720 1.42 390 1.42 388 1.42
 390  0.082  0.427  0.592- 391 1.42 423 1.42 389 1.42
 391  0.055  0.396  0.592- 722 1.42 390 1.42 392 1.42
 392  0.088  0.366  0.592- 425 1.42 391 1.42 393 1.42
 393  0.060  0.335  0.592- 365 1.42 394 1.42 392 1.42
 394  0.093  0.306  0.592- 427 1.42 393 1.42 395 1.42
 395  0.066  0.275  0.592- 366 1.42 396 1.42 394 1.42
 396  0.099  0.245  0.592- 397 1.42 429 1.42 395 1.42
 397  0.071  0.214  0.592- 396 1.42 367 1.42 398 1.42
 398  0.104  0.185  0.592- 431 1.42 397 1.42 399 1.42
 399  0.077  0.154  0.592- 368 1.42 400 1.42 398 1.42
 400  0.110  0.125  0.592- 401 1.42 433 1.42 399 1.42
 401  0.082  0.093  0.592- 400 1.42 369 1.42 402 1.42
 402  0.115  0.064  0.592- 435 1.42 401 1.42 403 1.42
 403  0.088  0.033  0.592- 370 1.42 404 1.42 402 1.42
 404  0.121  0.004  0.592- 437 1.42 403 1.42 405 1.42
 405  0.093  0.973  0.592- 372 1.42 406 1.42 404 1.42
 406  0.126  0.943  0.592- 407 1.42 439 1.42 405 1.42
 407  0.099  0.912  0.592- 406 1.42 374 1.42 408 1.42
 408  0.132  0.883  0.592- 441 1.42 407 1.42 409 1.42
 409  0.104  0.852  0.592- 410 1.42 376 1.42 408 1.42
 410  0.137  0.822  0.592- 409 1.42 411 1.42 443 1.42
 411  0.110  0.791  0.592- 412 1.42 410 1.42 378 1.42
 412  0.143  0.762  0.592- 413 1.42 411 1.42 445 1.42
 413  0.115  0.731  0.592- 412 1.42 414 1.42 380 1.42
 414  0.148  0.701  0.592- 413 1.42 415 1.42 447 1.42
 415  0.121  0.670  0.592- 416 1.42 414 1.42 382 1.42
 416  0.154  0.641  0.592- 417 1.42 415 1.42 449 1.42
 417  0.126  0.610  0.592- 416 1.42 418 1.42 384 1.42
 418  0.159  0.581  0.592- 419 1.42 417 1.42 451 1.42
 419  0.132  0.549  0.592- 418 1.42 420 1.42 386 1.42
 420  0.165  0.520  0.592- 419 1.42 421 1.42 453 1.42
 421  0.137  0.489  0.592- 388 1.42 422 1.42 420 1.42
 422  0.170  0.460  0.592- 423 1.42 455 1.42 421 1.42
 423  0.143  0.429  0.592- 422 1.42 390 1.42 424 1.42
 424  0.176  0.399  0.592- 457 1.42 423 1.42 425 1.42
 425  0.148  0.368  0.592- 392 1.42 426 1.42 424 1.42
 426  0.181  0.339  0.592- 459 1.42 425 1.42 427 1.42
 427  0.154  0.308  0.592- 394 1.42 428 1.42 426 1.42
 428  0.187  0.278  0.592- 429 1.42 461 1.42 427 1.42
 429  0.159  0.247  0.592- 428 1.42 396 1.42 430 1.42
 430  0.192  0.218  0.592- 463 1.42 429 1.42 431 1.42
 431  0.165  0.187  0.592- 398 1.42 432 1.42 430 1.42
 432  0.198  0.158  0.592- 433 1.42 465 1.42 431 1.42
 433  0.170  0.126  0.592- 432 1.42 400 1.42 434 1.42
 434  0.203  0.097  0.592- 435 1.42 467 1.42 433 1.42
 435  0.176  0.066  0.592- 402 1.42 434 1.42 436 1.42
 436  0.209  0.037  0.592- 469 1.42 435 1.42 437 1.42
 437  0.181  0.005  0.592- 404 1.42 438 1.42 436 1.42
 438  0.214  0.976  0.592- 439 1.42 471 1.42 437 1.42
 439  0.187  0.945  0.592- 438 1.42 406 1.42 440 1.42
 440  0.220  0.916  0.592- 441 1.42 473 1.42 439 1.42
 441  0.192  0.885  0.592- 408 1.42 440 1.42 442 1.42
 442  0.225  0.855  0.592- 475 1.42 441 1.42 443 1.42
 443  0.198  0.824  0.592- 444 1.42 442 1.42 410 1.42
 444  0.231  0.795  0.592- 445 1.42 443 1.42 477 1.42
 445  0.203  0.764  0.592- 444 1.42 446 1.42 412 1.42
 446  0.236  0.734  0.592- 445 1.42 447 1.42 479 1.42
 447  0.209  0.703  0.592- 448 1.42 446 1.42 414 1.42
 448  0.242  0.674  0.592- 447 1.42 449 1.42 481 1.42
 449  0.214  0.643  0.592- 450 1.42 448 1.42 416 1.42
 450  0.247  0.614  0.592- 451 1.42 449 1.42 483 1.42
 451  0.220  0.582  0.592- 450 1.42 452 1.42 418 1.42
 452  0.253  0.553  0.592- 451 1.42 453 1.42 485 1.42
 453  0.225  0.522  0.592- 454 1.42 452 1.42 420 1.42
 454  0.258  0.493  0.592- 453 1.42 455 1.42 487 1.42
 455  0.231  0.462  0.592- 454 1.42 422 1.42 456 1.42
 456  0.264  0.432  0.592- 489 1.42 455 1.42 457 1.42
 457  0.236  0.401  0.592- 424 1.42 458 1.42 456 1.42
 458  0.269  0.372  0.592- 491 1.42 457 1.42 459 1.42
 459  0.242  0.341  0.592- 426 1.42 460 1.42 458 1.42
 460  0.275  0.311  0.592- 461 1.42 493 1.42 459 1.42
 461  0.247  0.280  0.592- 460 1.42 428 1.42 462 1.42
 462  0.280  0.251  0.592- 495 1.42 461 1.42 463 1.42
 463  0.253  0.220  0.592- 430 1.42 464 1.42 462 1.42
 464  0.286  0.190  0.592- 465 1.42 497 1.42 463 1.42
 465  0.258  0.159  0.592- 464 1.42 432 1.42 466 1.42
 466  0.291  0.130  0.592- 467 1.42 499 1.42 465 1.42
 467  0.264  0.099  0.592- 466 1.42 434 1.42 468 1.42
 468  0.297  0.070  0.592- 501 1.42 467 1.42 469 1.42
 469  0.269  0.038  0.592- 436 1.42 470 1.42 468 1.42
 470  0.302  0.009  0.592- 471 1.42 503 1.42 469 1.42
 471  0.275  0.978  0.592- 470 1.42 438 1.42 472 1.42
 472  0.308  0.949  0.592- 473 1.42 505 1.42 471 1.42
 473  0.280  0.918  0.592- 472 1.42 440 1.42 474 1.42
 474  0.313  0.888  0.592- 507 1.42 473 1.42 475 1.42
 475  0.286  0.857  0.592- 476 1.42 442 1.42 474 1.42
 476  0.319  0.828  0.592- 477 1.42 475 1.42 509 1.42
 477  0.291  0.797  0.592- 476 1.42 478 1.42 444 1.42
 478  0.324  0.767  0.592- 477 1.42 479 1.42 511 1.42
 479  0.297  0.736  0.592- 480 1.42 478 1.42 446 1.42
 480  0.330  0.707  0.592- 479 1.42 481 1.42 513 1.42
 481  0.302  0.676  0.592- 482 1.42 480 1.42 448 1.42
 482  0.335  0.647  0.592- 483 1.42 481 1.42 515 1.42
 483  0.308  0.615  0.592- 482 1.42 484 1.42 450 1.42
 484  0.341  0.586  0.592- 483 1.42 485 1.42 517 1.42
 485  0.313  0.555  0.592- 486 1.42 484 1.42 452 1.42
 486  0.346  0.526  0.592- 485 1.42 487 1.42 519 1.42
 487  0.319  0.495  0.592- 486 1.42 454 1.42 488 1.42
 488  0.352  0.465  0.592- 521 1.42 487 1.42 489 1.42
 489  0.324  0.434  0.592- 456 1.42 490 1.42 488 1.42
 490  0.357  0.405  0.592- 523 1.42 489 1.42 491 1.42
 491  0.330  0.374  0.592- 458 1.42 492 1.42 490 1.42
 492  0.363  0.344  0.592- 493 1.42 525 1.42 491 1.42
 493  0.335  0.313  0.592- 492 1.42 460 1.42 494 1.42
 494  0.368  0.284  0.592- 527 1.42 493 1.42 495 1.42
 495  0.341  0.253  0.592- 462 1.42 496 1.42 494 1.42
 496  0.374  0.223  0.592- 529 1.42 497 1.42 495 1.42
 497  0.346  0.192  0.592- 496 1.42 464 1.42 498 1.42
 498  0.379  0.163  0.592- 499 1.42 531 1.42 497 1.42
 499  0.352  0.132  0.592- 498 1.42 466 1.42 500 1.42
 500  0.385  0.103  0.592- 533 1.42 499 1.42 501 1.42
 501  0.357  0.071  0.592- 468 1.42 502 1.42 500 1.42
 502  0.390  0.042  0.592- 503 1.42 535 1.42 501 1.42
 503  0.363  0.011  0.592- 502 1.42 470 1.42 504 1.42
 504  0.396  0.982  0.592- 505 1.42 537 1.42 503 1.42
 505  0.368  0.951  0.592- 504 1.42 472 1.42 506 1.42
 506  0.401  0.921  0.592- 539 1.42 505 1.42 507 1.42
 507  0.374  0.890  0.592- 508 1.42 474 1.42 506 1.42
 508  0.407  0.861  0.592- 509 1.42 507 1.42 541 1.42
 509  0.379  0.830  0.592- 508 1.42 510 1.42 476 1.42
 510  0.412  0.800  0.592- 509 1.42 511 1.42 543 1.42
 511  0.385  0.769  0.592- 512 1.42 510 1.42 478 1.42
 512  0.418  0.740  0.592- 511 1.42 513 1.42 545 1.42
 513  0.390  0.709  0.592- 514 1.42 512 1.42 480 1.42
 514  0.423  0.679  0.592- 515 1.42 513 1.42 547 1.42
 515  0.396  0.648  0.592- 514 1.42 516 1.42 482 1.42
 516  0.429  0.619  0.592- 515 1.42 517 1.42 549 1.42
 517  0.401  0.588  0.592- 518 1.42 516 1.42 484 1.42
 518  0.434  0.559  0.592- 517 1.42 519 1.42 551 1.42
 519  0.407  0.527  0.592- 518 1.42 486 1.42 520 1.42
 520  0.440  0.498  0.592- 521 1.42 553 1.42 519 1.42
 521  0.412  0.467  0.592- 488 1.42 520 1.42 522 1.42
 522  0.445  0.438  0.592- 555 1.42 521 1.42 523 1.42
 523  0.418  0.407  0.592- 490 1.42 524 1.42 522 1.42
 524  0.451  0.377  0.592- 525 1.42 557 1.42 523 1.42
 525  0.423  0.346  0.592- 524 1.42 492 1.42 526 1.42
 526  0.456  0.317  0.592- 559 1.42 525 1.42 527 1.42
 527  0.429  0.286  0.592- 494 1.42 528 1.42 526 1.42
 528  0.462  0.256  0.592- 561 1.42 527 1.42 529 1.42
 529  0.434  0.225  0.592- 496 1.42 530 1.42 528 1.42
 530  0.467  0.196  0.592- 531 1.42 563 1.42 529 1.42
 531  0.440  0.165  0.592- 530 1.42 498 1.42 532 1.42
 532  0.473  0.136  0.592- 565 1.42 531 1.42 533 1.42
 533  0.445  0.104  0.592- 500 1.42 534 1.42 532 1.42
 534  0.478  0.075  0.592- 535 1.42 567 1.42 533 1.42
 535  0.451  0.044  0.592- 534 1.42 502 1.42 536 1.42
 536  0.484  0.015  0.592- 569 1.42 535 1.42 537 1.42
 537  0.456  0.984  0.592- 504 1.42 538 1.42 536 1.42
 538  0.489  0.954  0.592- 571 1.42 537 1.42 539 1.42
 539  0.462  0.923  0.592- 506 1.42 540 1.42 538 1.42
 540  0.495  0.894  0.592- 541 1.42 573 1.42 539 1.42
 541  0.467  0.863  0.592- 542 1.42 540 1.42 508 1.42
 542  0.500  0.833  0.592- 541 1.42 543 1.42 575 1.42
 543  0.473  0.802  0.592- 544 1.42 542 1.42 510 1.42
 544  0.505  0.773  0.592- 543 1.42 545 1.42 577 1.42
 545  0.478  0.742  0.592- 546 1.42 544 1.42 512 1.42
 546  0.511  0.712  0.592- 547 1.42 545 1.42 579 1.42
 547  0.484  0.681  0.592- 546 1.42 548 1.42 514 1.42
 548  0.516  0.652  0.592- 547 1.42 549 1.42 581 1.42
 549  0.489  0.621  0.592- 550 1.42 548 1.42 516 1.42
 550  0.522  0.592  0.592- 551 1.42 549 1.42 583 1.42
 551  0.495  0.560  0.592- 550 1.42 552 1.42 518 1.42
 552  0.527  0.531  0.592- 553 1.42 585 1.42 551 1.42
 553  0.500  0.500  0.592- 552 1.42 520 1.42 554 1.42
 554  0.533  0.471  0.592- 587 1.42 553 1.42 555 1.42
 555  0.505  0.440  0.592- 522 1.42 556 1.42 554 1.42
 556  0.538  0.410  0.592- 557 1.42 589 1.42 555 1.42
 557  0.511  0.379  0.592- 556 1.42 524 1.42 558 1.42
 558  0.544  0.350  0.592- 591 1.42 557 1.42 559 1.42
 559  0.516  0.319  0.592- 526 1.42 560 1.42 558 1.42
 560  0.549  0.289  0.592- 593 1.42 559 1.42 561 1.42
 561  0.522  0.258  0.592- 528 1.42 562 1.42 560 1.42
 562  0.555  0.229  0.592- 563 1.42 595 1.42 561 1.42
 563  0.527  0.198  0.592- 562 1.42 530 1.42 564 1.42
 564  0.560  0.169  0.592- 597 1.42 563 1.42 565 1.42
 565  0.533  0.137  0.592- 532 1.42 566 1.42 564 1.42
 566  0.566  0.108  0.592- 567 1.42 599 1.42 565 1.42
 567  0.538  0.077  0.592- 566 1.42 534 1.42 568 1.42
 568  0.571  0.048  0.592- 601 1.42 567 1.42 569 1.42
 569  0.544  0.016  0.592- 536 1.42 570 1.42 568 1.42
 570  0.577  0.987  0.592- 603 1.42 569 1.42 571 1.42
 571  0.549  0.956  0.592- 538 1.42 572 1.42 570 1.42
 572  0.582  0.927  0.592- 573 1.42 605 1.42 571 1.42
 573  0.555  0.896  0.592- 574 1.42 572 1.42 540 1.42
 574  0.588  0.866  0.592- 573 1.42 575 1.42 607 1.42
 575  0.560  0.835  0.592- 576 1.42 574 1.42 542 1.42
 576  0.593  0.806  0.592- 575 1.42 577 1.42 609 1.42
 577  0.566  0.775  0.592- 578 1.42 576 1.42 544 1.42
 578  0.599  0.745  0.592- 579 1.42 577 1.42 611 1.42
 579  0.571  0.714  0.592- 578 1.42 580 1.42 546 1.42
 580  0.604  0.685  0.592- 579 1.42 581 1.42 613 1.42
 581  0.577  0.654  0.592- 582 1.42 580 1.42 548 1.42
 582  0.610  0.625  0.592- 583 1.42 581 1.42 615 1.42
 583  0.582  0.593  0.592- 582 1.42 584 1.42 550 1.42
 584  0.615  0.564  0.592- 585 1.42 583 1.42 617 1.42
 585  0.588  0.533  0.592- 584 1.42 552 1.42 586 1.42
 586  0.621  0.504  0.592- 619 1.42 585 1.42 587 1.42
 587  0.593  0.473  0.592- 554 1.42 588 1.42 586 1.42
 588  0.626  0.443  0.592- 589 1.42 621 1.42 587 1.42
 589  0.599  0.412  0.592- 588 1.42 556 1.42 590 1.42
 590  0.632  0.383  0.592- 623 1.42 589 1.42 591 1.42
 591  0.604  0.352  0.592- 558 1.42 592 1.42 590 1.42
 592  0.637  0.322  0.592- 625 1.42 591 1.42 593 1.42
 593  0.610  0.291  0.592- 560 1.42 594 1.42 592 1.42
 594  0.643  0.262  0.592- 595 1.42 627 1.42 593 1.42
 595  0.615  0.231  0.592- 594 1.42 562 1.42 596 1.42
 596  0.648  0.201  0.592- 629 1.42 595 1.42 597 1.42
 597  0.621  0.170  0.592- 564 1.42 598 1.42 596 1.42
 598  0.654  0.141  0.592- 599 1.42 631 1.42 597 1.42
 599  0.626  0.110  0.592- 598 1.42 566 1.42 600 1.42
 600  0.659  0.081  0.592- 601 1.42 633 1.42 599 1.42
 601  0.632  0.049  0.592- 568 1.42 600 1.42 602 1.42
 602  0.665  0.020  0.592- 635 1.42 601 1.42 603 1.42
 603  0.637  0.989  0.592- 570 1.42 604 1.42 602 1.42
 604  0.670  0.960  0.592- 605 1.42 637 1.42 603 1.42
 605  0.643  0.929  0.592- 604 1.42 572 1.42 606 1.42
 606  0.676  0.899  0.592- 639 1.42 605 1.42 607 1.42
 607  0.648  0.868  0.592- 608 1.42 606 1.42 574 1.42
 608  0.681  0.839  0.592- 607 1.42 609 1.42 641 1.42
 609  0.654  0.808  0.592- 610 1.42 608 1.42 576 1.42
 610  0.687  0.778  0.592- 611 1.42 609 1.42 643 1.42
 611  0.659  0.747  0.592- 610 1.42 612 1.42 578 1.42
 612  0.692  0.718  0.592- 611 1.42 613 1.42 645 1.42
 613  0.665  0.687  0.592- 614 1.42 612 1.42 580 1.42
 614  0.698  0.658  0.592- 615 1.42 613 1.42 647 1.42
 615  0.670  0.626  0.592- 614 1.42 616 1.42 582 1.42
 616  0.703  0.597  0.592- 617 1.42 615 1.42 649 1.42
 617  0.676  0.566  0.592- 616 1.42 618 1.42 584 1.42
 618  0.709  0.537  0.592- 617 1.42 651 1.42 619 1.42
 619  0.681  0.505  0.592- 586 1.42 620 1.42 618 1.42
 620  0.714  0.476  0.592- 621 1.42 653 1.42 619 1.42
 621  0.687  0.445  0.592- 620 1.42 588 1.42 622 1.42
 622  0.720  0.416  0.592- 655 1.42 621 1.42 623 1.42
 623  0.692  0.385  0.592- 590 1.42 624 1.42 622 1.42
 624  0.725  0.355  0.592- 657 1.42 623 1.42 625 1.42
 625  0.698  0.324  0.592- 592 1.42 626 1.42 624 1.42
 626  0.731  0.295  0.592- 627 1.42 659 1.42 625 1.42
 627  0.703  0.264  0.592- 626 1.42 594 1.42 628 1.42
 628  0.736  0.234  0.592- 661 1.42 627 1.42 629 1.42
 629  0.709  0.203  0.592- 596 1.42 630 1.42 628 1.42
 630  0.742  0.174  0.592- 631 1.42 663 1.42 629 1.42
 631  0.714  0.143  0.592- 630 1.42 598 1.42 632 1.42
 632  0.747  0.114  0.592- 633 1.42 665 1.42 631 1.42
 633  0.720  0.082  0.592- 632 1.42 600 1.42 634 1.42
 634  0.753  0.053  0.592- 667 1.42 633 1.42 635 1.42
 635  0.725  0.022  0.592- 602 1.42 636 1.42 634 1.42
 636  0.758  0.993  0.592- 637 1.42 669 1.42 635 1.42
 637  0.731  0.962  0.592- 636 1.42 604 1.42 638 1.42
 638  0.764  0.932  0.592- 639 1.42 671 1.42 637 1.42
 639  0.736  0.901  0.592- 640 1.42 606 1.42 638 1.42
 640  0.769  0.872  0.592- 639 1.42 641 1.42 673 1.42
 641  0.742  0.841  0.592- 642 1.42 640 1.42 608 1.42
 642  0.775  0.811  0.592- 643 1.42 641 1.42 675 1.42
 643  0.747  0.780  0.592- 642 1.42 644 1.42 610 1.42
 644  0.780  0.751  0.592- 643 1.42 645 1.42 677 1.42
 645  0.753  0.720  0.592- 646 1.42 644 1.42 612 1.42
 646  0.786  0.690  0.592- 645 1.42 647 1.42 679 1.42
 647  0.758  0.659  0.592- 648 1.42 646 1.42 614 1.42
 648  0.791  0.630  0.592- 649 1.42 647 1.42 681 1.42
 649  0.764  0.599  0.592- 648 1.42 650 1.42 616 1.42
 650  0.797  0.570  0.592- 649 1.42 683 1.42 651 1.42
 651  0.769  0.538  0.592- 618 1.42 652 1.42 650 1.42
 652  0.802  0.509  0.592- 653 1.42 685 1.42 651 1.42
 653  0.775  0.478  0.592- 652 1.42 620 1.42 654 1.42
 654  0.808  0.449  0.592- 687 1.42 653 1.42 655 1.42
 655  0.780  0.418  0.592- 622 1.42 656 1.42 654 1.42
 656  0.813  0.388  0.592- 689 1.42 655 1.42 657 1.42
 657  0.786  0.357  0.592- 624 1.42 658 1.42 656 1.42
 658  0.819  0.328  0.592- 659 1.42 691 1.42 657 1.42
 659  0.791  0.297  0.592- 658 1.42 626 1.42 660 1.42
 660  0.824  0.267  0.592- 693 1.42 659 1.42 661 1.42
 661  0.797  0.236  0.592- 628 1.42 662 1.42 660 1.42
 662  0.830  0.207  0.592- 663 1.42 695 1.42 661 1.42
 663  0.802  0.176  0.592- 662 1.42 630 1.42 664 1.42
 664  0.835  0.147  0.592- 665 1.42 697 1.42 663 1.42
 665  0.808  0.115  0.592- 664 1.42 632 1.42 666 1.42
 666  0.841  0.086  0.592- 699 1.42 665 1.42 667 1.42
 667  0.813  0.055  0.592- 634 1.42 668 1.42 666 1.42
 668  0.846  0.026  0.592- 669 1.42 701 1.42 667 1.42
 669  0.819  0.995  0.592- 668 1.42 636 1.42 670 1.42
 670  0.852  0.965  0.592- 671 1.42 703 1.42 669 1.42
 671  0.824  0.934  0.592- 672 1.42 670 1.42 638 1.42
 672  0.857  0.905  0.592- 671 1.42 673 1.42 705 1.42
 673  0.830  0.874  0.592- 674 1.42 672 1.42 640 1.42
 674  0.863  0.844  0.592- 675 1.42 673 1.42 707 1.42
 675  0.835  0.813  0.592- 674 1.42 676 1.42 642 1.42
 676  0.868  0.784  0.592- 675 1.42 677 1.42 709 1.42
 677  0.841  0.753  0.592- 678 1.42 676 1.42 644 1.42
 678  0.874  0.723  0.592- 677 1.42 679 1.42 711 1.42
 679  0.846  0.692  0.592- 680 1.42 678 1.42 646 1.42
 680  0.879  0.663  0.592- 681 1.42 679 1.42 713 1.42
 681  0.852  0.632  0.592- 680 1.42 682 1.42 648 1.42
 682  0.885  0.603  0.592- 681 1.42 683 1.42 715 1.42
 683  0.857  0.571  0.592- 650 1.42 684 1.42 682 1.42
 684  0.890  0.542  0.592- 685 1.42 717 1.42 683 1.42
 685  0.863  0.511  0.592- 684 1.42 652 1.42 686 1.42
 686  0.896  0.482  0.592- 719 1.42 685 1.42 687 1.42
 687  0.868  0.451  0.592- 654 1.42 688 1.42 686 1.42
 688  0.901  0.421  0.592- 721 1.42 687 1.42 689 1.42
 689  0.874  0.390  0.592- 656 1.42 690 1.42 688 1.42
 690  0.907  0.361  0.592- 691 1.42 723 1.42 689 1.42
 691  0.879  0.330  0.592- 690 1.42 658 1.42 692 1.42
 692  0.912  0.300  0.592- 724 1.42 691 1.42 693 1.42
 693  0.885  0.269  0.592- 660 1.42 694 1.42 692 1.42
 694  0.918  0.240  0.592- 725 1.42 695 1.42 693 1.42
 695  0.890  0.209  0.592- 694 1.42 662 1.42 696 1.42
 696  0.923  0.179  0.592- 697 1.42 726 1.42 695 1.42
 697  0.896  0.148  0.592- 696 1.42 664 1.42 698 1.42
 698  0.929  0.119  0.592- 727 1.42 697 1.42 699 1.42
 699  0.901  0.088  0.592- 666 1.42 700 1.42 698 1.42
 700  0.934  0.059  0.592- 701 1.42 728 1.42 699 1.42
 701  0.907  0.027  0.592- 700 1.42 668 1.42 702 1.42
 702  0.940  0.998  0.592- 371 1.42 703 1.42 701 1.42
 703  0.912  0.967  0.592- 702 1.42 670 1.42 704 1.42
 704  0.945  0.938  0.592- 373 1.42 703 1.42 705 1.42
 705  0.918  0.907  0.592- 706 1.42 704 1.42 672 1.42
 706  0.951  0.877  0.592- 707 1.42 705 1.42 375 1.42
 707  0.923  0.846  0.592- 706 1.42 708 1.42 674 1.42
 708  0.956  0.817  0.592- 707 1.42 709 1.42 377 1.42
 709  0.929  0.786  0.592- 710 1.42 708 1.42 676 1.42
 710  0.962  0.756  0.592- 709 1.42 711 1.42 379 1.42
 711  0.934  0.725  0.592- 712 1.42 710 1.42 678 1.42
 712  0.967  0.696  0.592- 713 1.42 711 1.42 381 1.42
 713  0.940  0.665  0.592- 712 1.42 714 1.42 680 1.42
 714  0.973  0.636  0.592- 713 1.42 715 1.42 383 1.42
 715  0.945  0.604  0.592- 716 1.42 714 1.42 682 1.42
 716  0.978  0.575  0.592- 715 1.42 717 1.42 385 1.42
 717  0.951  0.544  0.592- 716 1.42 684 1.42 718 1.42
 718  0.984  0.515  0.592- 719 1.42 387 1.42 717 1.42
 719  0.956  0.484  0.592- 686 1.42 718 1.42 720 1.42
 720  0.989  0.454  0.592- 389 1.42 719 1.42 721 1.42
 721  0.962  0.423  0.592- 688 1.42 722 1.42 720 1.42
 722  0.995  0.394  0.592- 391 1.42 723 1.42 721 1.42
 723  0.967  0.363  0.592- 722 1.42 690 1.42 365 1.42
 724  0.973  0.302  0.592- 692 1.42 366 1.42 365 1.42
 725  0.978  0.242  0.592- 694 1.42 367 1.42 366 1.42
 726  0.984  0.181  0.592- 367 1.42 696 1.42 368 1.42
 727  0.989  0.121  0.592- 698 1.42 369 1.42 368 1.42
 728  0.995  0.060  0.592- 369 1.42 700 1.42 370 1.42

  LATTYP: Found a simple orthorhombic cell.
 ALAT       =    18.4000000000
 B/A-ratio  =     1.2753752011
 C/A-ratio  =     2.2090146848
  
  Lattice vectors:
  
 A1 = (   0.0000000000,   0.0000000000,  18.4000000000)
 A2 = ( -23.4669037000,   0.0000000000,   0.0000000000)
 A3 = (   0.0000000000, -40.6458702000,   0.0000000000)


Analysis of symmetry for initial positions (statically):
=====================================================================
 Subroutine PRICEL returns:
 Original cell was already a primitive cell.
 

 Routine SETGRP: Setting up the symmetry group for a 
 simple orthorhombic supercell.


 Subroutine GETGRP returns: Found  1 space group operations
 (whereof  1 operations were pure point group operations)
 out of a pool of  8 trial point group operations.


The static configuration has the point symmetry C_1 .


Analysis of symmetry for dynamics (positions and initial velocities):
=====================================================================
 Subroutine PRICEL returns:
 Original cell was already a primitive cell.
 

 Routine SETGRP: Setting up the symmetry group for a 
 simple orthorhombic supercell.


 Subroutine GETGRP returns: Found  1 space group operations
 (whereof  1 operations were pure point group operations)
 out of a pool of  8 trial point group operations.


The dynamic configuration has the point symmetry C_1 .


 Subroutine INISYM returns: Found  1 space group operations
 (whereof  1 operations are pure point group operations),
 and found     1 'primitive' translations



 KPOINTS: K-Points                                

Automatic generation of k-mesh.
Space group operators:
 irot       det(A)        alpha          n_x          n_y          n_z        tau_x        tau_y        tau_z
    1     1.000000     0.000000     1.000000     0.000000     0.000000     0.000000     0.000000     0.000000
 
 Subroutine IBZKPT returns following result:
 ===========================================
 
 Found      1 irreducible k-points:
 
 Following reciprocal coordinates:
            Coordinates               Weight
  0.000000  0.000000  0.000000      1.000000
 
 Following cartesian coordinates:
            Coordinates               Weight
  0.000000  0.000000  0.000000      1.000000
 


--------------------------------------------------------------------------------------------------------




 Dimension of arrays:
   k-points           NKPTS =      1   k-points in BZ     NKDIM =      1   number of bands    NBANDS=   1824
   number of dos      NEDOS =    301   number of ions     NIONS =    728
   non local maximal  LDIM  =      4   non local SUM 2l+1 LMDIM =      8
   total plane-waves  NPLWV = ******
   max r-space proj   IRMAX =   1185   max aug-charges    IRDMAX=   1652
   dimension x,y,z NGX =   120 NGY =  200 NGZ =   90
   dimension x,y,z NGXF=   240 NGYF=  400 NGZF=  180
   support grid    NGXF=   240 NGYF=  400 NGZF=  180
   ions per type =             728
   NGX,Y,Z   is equivalent  to a cutoff of   8.50,  8.18,  8.13 a.u.
   NGXF,Y,Z  is equivalent  to a cutoff of  17.00, 16.36, 16.26 a.u.

 SYSTEM =  unknown system                          
 POSCAR =  POSCAR file written by OVITO            

 Startparameter for this run:
   NWRITE =      2    write-flag & timer
   PREC   = normal    normal or accurate (medium, high low for compatibility)
   ISTART =      0    job   : 0-new  1-cont  2-samecut
   ICHARG =      2    charge: 1-file 2-atom 10-const
   ISPIN  =      1    spin polarized calculation?
   LNONCOLLINEAR =      F non collinear calculations
   LSORBIT =      F    spin-orbit coupling
   INIWAV =      1    electr: 0-lowe 1-rand  2-diag
   LASPH  =      F    aspherical Exc in radial PAW
   METAGGA=      F    non-selfconsistent MetaGGA calc.

 Electronic Relaxation 1
   ENCUT  =  400.0 eV  29.40 Ry    5.42 a.u.  38.27 66.28 30.01*2*pi/ulx,y,z
   ENINI  =  400.0     initial cutoff
   ENAUG  =  644.9 eV  augmentation charge cutoff
   NELM   =     60;   NELMIN=  2; NELMDL= -5     # of ELM steps 
   EDIFF  = 0.1E-06   stopping-criterion for ELM
   LREAL  =      T    real-space projection
   NLSPLINE    = F    spline interpolate recip. space projectors
   LCOMPAT=      F    compatible to vasp.4.4
   GGA_COMPAT  = T    GGA compatible to vasp.4.4-vasp.4.6
   LMAXPAW     = -100 max onsite density
   LMAXMIX     =    2 max onsite mixed and CHGCAR
   VOSKOWN=      0    Vosko Wilk Nusair interpolation
   ROPT   =   -0.00050
 Ionic relaxation
   EDIFFG = -.5E-01   stopping-criterion for IOM
   NSW    =     50    number of steps for IOM
   NBLOCK =      1;   KBLOCK =     50    inner block; outer block 
   IBRION =      2    ionic relax: 0-MD 1-quasi-New 2-CG
   NFREE  =      1    steps in history (QN), initial steepest desc. (CG)
   ISIF   =      4    stress and relaxation
   IWAVPR =     11    prediction:  0-non 1-charg 2-wave 3-comb
   ISYM   =      2    0-nonsym 1-usesym 2-fastsym
   LCORR  =      T    Harris-Foulkes like correction to forces

   POTIM  = 0.5000    time-step for ionic-motion
   TEIN   =    0.0    initial temperature
   TEBEG  =    0.0;   TEEND  =   0.0 temperature during run
   SMASS  =  -3.00    Nose mass-parameter (am)
   estimated Nose-frequenzy (Omega)   =  0.10E-29 period in steps =****** mass=  -0.126E-25a.u.
   SCALEE = 1.0000    scale energy and forces
   NPACO  =    256;   APACO  = 16.0  distance and # of slots for P.C.
   PSTRESS=    0.0 pullay stress

  Mass of Ions in am
   POMASS =  12.01
  Ionic Valenz
   ZVAL   =   4.00
  Atomic Wigner-Seitz radii
   RWIGS  =  -1.00
  virtual crystal weights 
   VCA    =   1.00
   NELECT =    2912.0000    total number of electrons
   NUPDOWN=      -1.0000    fix difference up-down

 DOS related values:
   EMIN   =  10.00;   EMAX   =-10.00  energy-range for DOS
   EFERMI =   0.00
   ISMEAR =     0;   SIGMA  =   0.05  broadening in eV -4-tet -1-fermi 0-gaus

 Electronic relaxation 2 (details)
   IALGO  =     68    algorithm
   LDIAG  =      T    sub-space diagonalisation (order eigenvalues)
   LSUBROT=      F    optimize rotation matrix (better conditioning)
   TURBO    =      0    0=normal 1=particle mesh
   IRESTART =      0    0=no restart 2=restart with 2 vectors
   NREBOOT  =      0    no. of reboots
   NMIN     =      0    reboot dimension
   EREF     =   0.00    reference energy to select bands
   IMIX   =      4    mixing-type and parameters
     AMIX     =   0.40;   BMIX     =  1.00
     AMIX_MAG =   1.60;   BMIX_MAG =  1.00
     AMIN     =   0.10
     WC   =   100.;   INIMIX=   1;  MIXPRE=   1;  MAXMIX= -45

 Intra band minimization:
   WEIMIN = 0.0010     energy-eigenvalue tresh-hold
   EBREAK =  0.14E-10  absolut break condition
   DEPER  =   0.30     relativ break condition  

   TIME   =   0.40     timestep for ELM

  volume/ion in A,a.u.               =      24.11       162.69
  Fermi-wavevector in a.u.,A,eV,Ry     =   0.899584  1.699968 11.010544  0.809252
  Thomas-Fermi vector in A             =   2.022436

 Write flags
   LWAVE        =      T    write WAVECAR
   LDOWNSAMPLE  =      F    k-point downsampling of WAVECAR
   LCHARG       =      T    write CHGCAR
   LVTOT        =      F    write LOCPOT, total local potential
   LVHAR        =      F    write LOCPOT, Hartree potential only
   LELF         =      F    write electronic localiz. function (ELF)
   LORBIT       =     11    0 simple, 1 ext, 2 COOP (PROOUT), +10 PAW based schemes


 Dipole corrections
   LMONO  =      F    monopole corrections only (constant potential shift)
   LDIPOL =      F    correct potential (dipole corrections)
   IDIPOL =      0    1-x, 2-y, 3-z, 4-all directions 
   EPSILON=  1.0000000 bulk dielectric constant

 Exchange correlation treatment:
   GGA     =    --    GGA type
   LEXCH   =     8    internal setting for exchange type
   VOSKOWN=      0    Vosko Wilk Nusair interpolation
   LHFCALC =     F    Hartree Fock is set to
   LHFONE  =     F    Hartree Fock one center treatment
   AEXX    =    0.0000 exact exchange contribution

 Linear response parameters
   LEPSILON=     F    determine dielectric tensor
   LRPA    =     F    only Hartree local field effects (RPA)
   LNABLA  =     F    use nabla operator in PAW spheres
   LVEL    =     F    velocity operator in full k-point grid
   LINTERFAST=   F  fast interpolation
   KINTER  =     0    interpolate to denser k-point grid
   CSHIFT  =0.1000    complex shift for real part using Kramers Kronig
   OMEGAMAX=  -1.0    maximum frequency
   DEG_THRESHOLD= 0.2000000E-02 threshold for treating states as degnerate
   RTIME   =   -0.100 relaxation time in fs
  (WPLASMAI=    0.000 imaginary part of plasma frequency in eV, 0.658/RTIME)
   DFIELD  = 0.0000000 0.0000000 0.0000000 field for delta impulse in time

 Orbital magnetization related:
   ORBITALMAG=     F  switch on orbital magnetization
   LCHIMAG   =     F  perturbation theory with respect to B field
   DQ        =  0.001000  dq finite difference perturbation B field
   LLRAUG    =     F  two centre corrections for induced B field



--------------------------------------------------------------------------------------------------------


 conjugate gradient relaxation of ions
 charge density and potential will be updated during run
 non-spin polarized calculation
 RMM-DIIS sequential band-by-band and
  variant of blocked Davidson during initial phase
 perform sub-space diagonalisation
    before iterative eigenvector-optimisation
 modified Broyden-mixing scheme, WC =      100.0
 initial mixing is a Kerker type mixing with AMIX =  0.4000 and BMIX =      1.0000
 Hartree-type preconditioning will be used
 using additional bands          368
 real space projection scheme for non local part
 use partial core corrections
 calculate Harris-corrections to forces   (improved forces if not selfconsistent)
 use gradient corrections 
 use of overlap-Matrix (Vanderbilt PP)
 Gauss-broadening in eV      SIGMA  =   0.05


--------------------------------------------------------------------------------------------------------


  energy-cutoff  :      400.00
  volume of cell :    17550.52
      direct lattice vectors                 reciprocal lattice vectors
    23.466903700  0.000000000  0.000000000     0.042613206  0.000000000  0.000000000
     0.000000000 40.645870200  0.000000000     0.000000000  0.024602745  0.000000000
     0.000000000  0.000000000 18.400000000     0.000000000  0.000000000  0.054347826

  length of vectors
    23.466903700 40.645870200 18.400000000     0.042613206  0.024602745  0.054347826



 k-points in units of 2pi/SCALE and weight: K-Points                                
   0.00000000  0.00000000  0.00000000       1.000

 k-points in reciprocal lattice and weights: K-Points                                
   0.00000000  0.00000000  0.00000000       1.000

 position of ions in fractional coordinates (direct lattice) 
   0.02748552  0.96885614  0.40760870
   0.02198841  0.90843177  0.40760870
   0.01649131  0.84798281  0.40760870
   0.01099421  0.78753384  0.40760870
   0.00549710  0.72710956  0.40760870
   0.00000000  0.66666060  0.40760870
   0.12089366  0.99633743  0.40760870
   0.08791104  0.96703551  0.40760870
   0.11539656  0.93588846  0.40760870
   0.08241394  0.90658654  0.40760870
   0.10989946  0.87546409  0.40760870
   0.07691684  0.84616227  0.40760870
   0.10440236  0.81501512  0.40760870
   0.07141973  0.78571330  0.40760870
   0.09890526  0.75459080  0.40760870
   0.06592263  0.72526434  0.40760870
   0.09340814  0.69414188  0.40760870
   0.06042553  0.66484001  0.40760870
   0.08791104  0.63369292  0.40760870
   0.05492842  0.60439105  0.40760870
   0.08241394  0.57326859  0.40760870
   0.04943132  0.54396672  0.40760870
   0.07691684  0.51281963  0.40760870
   0.04397682  0.48351775  0.40760870
   0.07141973  0.45237066  0.40760870
   0.03847972  0.42306879  0.40760870
   0.06592263  0.39194633  0.40760870
   0.03298262  0.36264446  0.40760870
   0.06042553  0.33149739  0.40760870
   0.02748552  0.30219552  0.40760870
   0.05492842  0.27107304  0.40760870
   0.02198841  0.24174658  0.40760870
   0.04943132  0.21062410  0.40760870
   0.01649131  0.18132223  0.40760870
   0.04397682  0.15017516  0.40760870
   0.01099421  0.12087329  0.40760870
   0.03847972  0.08975082  0.40760870
   0.00549710  0.06044895  0.40760870
   0.03298262  0.02930187  0.40760870
   0.00000000  0.00000000  0.40760870
   0.18131920  0.99451679  0.40760870
   0.20880472  0.96336974  0.40760870
   0.17582208  0.93406783  0.40760870
   0.20330760  0.90292078  0.40760870
   0.17032498  0.87361886  0.40760870
   0.19781051  0.84249640  0.40760870
   0.16482788  0.81319458  0.40760870
   0.19231340  0.78204749  0.40760870
   0.15933078  0.75274562  0.40760870
   0.18681629  0.72162311  0.40760870
   0.15383367  0.69229665  0.40760870
   0.18131920  0.66117420  0.40760870
   0.14833657  0.63187233  0.40760870
   0.17582208  0.60072523  0.40760870
   0.14283947  0.57142336  0.40760870
   0.17032498  0.54030090  0.40760870
   0.13734237  0.51099904  0.40760870
   0.16482788  0.47985194  0.40760870
   0.13188787  0.45055007  0.40760870
   0.15933078  0.41940302  0.40760870
   0.12639078  0.39010113  0.40760870
   0.15383367  0.35897865  0.40760870
   0.12089366  0.32967678  0.40760870
   0.14833657  0.29852971  0.40760870
   0.11539656  0.26922784  0.40760870
   0.14283947  0.23810538  0.40760870
   0.10989946  0.20880351  0.40760870
   0.13734237  0.17765643  0.40760870
   0.10440236  0.14835456  0.40760870
   0.13188787  0.11720748  0.40760870
   0.09890526  0.08790561  0.40760870
   0.12639078  0.05678314  0.40760870
   0.09340814  0.02748127  0.40760870
   0.30221286  0.99085093  0.40760870
   0.26923023  0.96154911  0.40760870
   0.29671574  0.93040206  0.40760870
   0.26373314  0.90110014  0.40760870
   0.29121865  0.86995310  0.40760870
   0.25823602  0.84065118  0.40760870
   0.28572154  0.80952872  0.40760870
   0.25273893  0.78022685  0.40760870
   0.28022445  0.74907980  0.40760870
   0.24724183  0.71977793  0.40760870
   0.27472734  0.68865543  0.40760870
   0.24174471  0.65932897  0.40760870
   0.26923023  0.62820651  0.40760870
   0.23624762  0.59890464  0.40760870
   0.26373314  0.56775755  0.40760870
   0.23075051  0.53845568  0.40760870
   0.25823602  0.50733322  0.40760870
   0.22529603  0.47803135  0.40760870
   0.25273893  0.44688426  0.40760870
   0.21979892  0.41758239  0.40760870
   0.24724183  0.38643532  0.40760870
   0.21430180  0.35713345  0.40760870
   0.24174471  0.32601099  0.40760870
   0.20880472  0.29670912  0.40760870
   0.23624762  0.26556203  0.40760870
   0.20330760  0.23626016  0.40760870
   0.23075051  0.20513770  0.40760870
   0.19781051  0.17583582  0.40760870
   0.22529603  0.14468875  0.40760870
   0.19231340  0.11538688  0.40760870
   0.21979892  0.08423980  0.40760870
   0.18681629  0.05493793  0.40760870
   0.21430180  0.02381546  0.40760870
   0.36263840  0.98900580  0.40760870
   0.39012389  0.95788325  0.40760870
   0.35714126  0.92858143  0.40760870
   0.38462680  0.89743438  0.40760870
   0.35164417  0.86813246  0.40760870
   0.37912971  0.83698541  0.40760870
   0.34614708  0.80768350  0.40760870
   0.37363258  0.77656104  0.40760870
   0.34064997  0.74725917  0.40760870
   0.36813549  0.71611212  0.40760870
   0.33515286  0.68681025  0.40760870
   0.36263840  0.65568775  0.40760870
   0.32965577  0.62638588  0.40760870
   0.35714126  0.59523883  0.40760870
   0.32415865  0.56593696  0.40760870
   0.35164417  0.53478987  0.40760870
   0.31866156  0.50548800  0.40760870
   0.34614708  0.47436554  0.40760870
   0.31320706  0.44506367  0.40760870
   0.34064997  0.41391658  0.40760870
   0.30770997  0.38461473  0.40760870
   0.33515286  0.35346763  0.40760870
   0.30221286  0.32416576  0.40760870
   0.32965577  0.29304331  0.40760870
   0.29671574  0.26374144  0.40760870
   0.32415865  0.23259437  0.40760870
   0.29121865  0.20329247  0.40760870
   0.31866156  0.17217002  0.40760870
   0.28572154  0.14286815  0.40760870
   0.31320706  0.11172106  0.40760870
   0.28022445  0.08241919  0.40760870
   0.30770997  0.05127212  0.40760870
   0.27472734  0.02197025  0.40760870
   0.48353205  0.98533994  0.40760870
   0.45054943  0.95603812  0.40760870
   0.47803496  0.92491566  0.40760870
   0.44505234  0.89561374  0.40760870
   0.47253783  0.86446669  0.40760870
   0.43955520  0.83516478  0.40760870
   0.46704074  0.80401773  0.40760870
   0.43405811  0.77471586  0.40760870
   0.46154365  0.74359340  0.40760870
   0.42856102  0.71429153  0.40760870
   0.45604652  0.68314444  0.40760870
   0.42306393  0.65384257  0.40760870
   0.45054943  0.62272011  0.40760870
   0.41756680  0.59341824  0.40760870
   0.44505234  0.56227115  0.40760870
   0.41206971  0.53296928  0.40760870
   0.43955520  0.50182219  0.40760870
   0.40657261  0.47252032  0.40760870
   0.43405811  0.44139786  0.40760870
   0.40111811  0.41209599  0.40760870
   0.42856102  0.38094892  0.40760870
   0.39562102  0.35164705  0.40760870
   0.42306393  0.32052457  0.40760870
   0.39012389  0.29119811  0.40760870
   0.41756680  0.26007563  0.40760870
   0.38462680  0.23077376  0.40760870
   0.41206971  0.19962668  0.40760870
   0.37912971  0.17032481  0.40760870
   0.40657261  0.13920233  0.40760870
   0.37363258  0.10990046  0.40760870
   0.40111811  0.07875339  0.40760870
   0.36813549  0.04945152  0.40760870
   0.39562102  0.01830444  0.40760870
   0.54395759  0.98351940  0.40760870
   0.57144309  0.95237226  0.40760870
   0.53846046  0.92307043  0.40760870
   0.56594599  0.89194797  0.40760870
   0.53296337  0.86264606  0.40760870
   0.56044890  0.83149901  0.40760870
   0.52746628  0.80219710  0.40760870
   0.55495177  0.77105005  0.40760870
   0.52196914  0.74174818  0.40760870
   0.54945469  0.71062572  0.40760870
   0.51647205  0.68132385  0.40760870
   0.54395759  0.65017676  0.40760870
   0.51097496  0.62087489  0.40760870
   0.53846046  0.58975243  0.40760870
   0.50547787  0.56045056  0.40760870
   0.53296337  0.52930347  0.40760870
   0.49998074  0.50000160  0.40760870
   0.52746628  0.46885450  0.40760870
   0.49452624  0.43955263  0.40760870
   0.52196914  0.40843018  0.40760870
   0.48902915  0.37912831  0.40760870
   0.51647205  0.34798123  0.40760870
   0.48353205  0.31867937  0.40760870
   0.51097496  0.28755688  0.40760870
   0.47803496  0.25823042  0.40760870
   0.50547787  0.22710794  0.40760870
   0.47253783  0.19780607  0.40760870
   0.49998074  0.16665900  0.40760870
   0.46704074  0.13735713  0.40760870
   0.49452624  0.10623465  0.40760870
   0.46154365  0.07693279  0.40760870
   0.48902915  0.04578571  0.40760870
   0.45604652  0.01648384  0.40760870
   0.66485125  0.97985354  0.40760870
   0.63186862  0.95055171  0.40760870
   0.65935412  0.91940457  0.40760870
   0.62637153  0.89010275  0.40760870
   0.65385703  0.85898030  0.40760870
   0.62087440  0.82967838  0.40760870
   0.64835994  0.79853133  0.40760870
   0.61537731  0.76922946  0.40760870
   0.64286284  0.73810696  0.40760870
   0.60988022  0.70878049  0.40760870
   0.63736571  0.67765804  0.40760870
   0.60438308  0.64835617  0.40760870
   0.63186862  0.61720907  0.40760870
   0.59888599  0.58790721  0.40760870
   0.62637153  0.55678475  0.40760870
   0.59338890  0.52748288  0.40760870
   0.62087440  0.49633578  0.40760870
   0.58789177  0.46703391  0.40760870
   0.61537731  0.43588682  0.40760870
   0.58243731  0.40658495  0.40760870
   0.60988022  0.37546249  0.40760870
   0.57694018  0.34616062  0.40760870
   0.60438308  0.31501355  0.40760870
   0.57144309  0.28571168  0.40760870
   0.59888599  0.25458920  0.40760870
   0.56594599  0.22526274  0.40760870
   0.59338890  0.19414026  0.40760870
   0.56044890  0.16483839  0.40760870
   0.58789177  0.13369132  0.40760870
   0.55495177  0.10438945  0.40760870
   0.58243731  0.07326698  0.40760870
   0.54945469  0.04396511  0.40760870
   0.57694018  0.01281803  0.40760870
   0.72527679  0.97803290  0.40760870
   0.75276232  0.94688585  0.40760870
   0.71977970  0.91758403  0.40760870
   0.74726515  0.88643689  0.40760870
   0.71428252  0.85713507  0.40760870
   0.74176806  0.82601261  0.40760870
   0.70878543  0.79671069  0.40760870
   0.73627097  0.76556365  0.40760870
   0.70328834  0.73626178  0.40760870
   0.73077388  0.70513927  0.40760870
   0.69779125  0.67581281  0.40760870
   0.72527679  0.64469036  0.40760870
   0.69229416  0.61538849  0.40760870
   0.71977970  0.58424139  0.40760870
   0.68679707  0.55493952  0.40760870
   0.71428252  0.52381706  0.40760870
   0.68129994  0.49451519  0.40760870
   0.70878543  0.46336810  0.40760870
   0.67584544  0.43406623  0.40760870
   0.70328834  0.40291918  0.40760870
   0.67034834  0.37361729  0.40760870
   0.69779125  0.34249481  0.40760870
   0.66485125  0.31319294  0.40760870
   0.69229416  0.28204587  0.40760870
   0.65935412  0.25274400  0.40760870
   0.68679707  0.22162154  0.40760870
   0.65385703  0.19231966  0.40760870
   0.68129994  0.16117259  0.40760870
   0.64835994  0.13187072  0.40760870
   0.67584544  0.10072364  0.40760870
   0.64286284  0.07142178  0.40760870
   0.67034834  0.04029930  0.40760870
   0.63736571  0.01099743  0.40760870
   0.84617045  0.97436714  0.40760870
   0.81318782  0.94506522  0.40760870
   0.84067336  0.91391817  0.40760870
   0.80769073  0.88461635  0.40760870
   0.83517627  0.85346921  0.40760870
   0.80219364  0.82416739  0.40760870
   0.82967909  0.79304493  0.40760870
   0.79669646  0.76374301  0.40760870
   0.82418200  0.73259596  0.40760870
   0.79119937  0.70329410  0.40760870
   0.81868491  0.67217159  0.40760870
   0.78570228  0.64284513  0.40760870
   0.81318782  0.61172267  0.40760870
   0.78020519  0.58242080  0.40760870
   0.80769073  0.55127371  0.40760870
   0.77470810  0.52197184  0.40760870
   0.80219364  0.49084938  0.40760870
   0.76921101  0.46154751  0.40760870
   0.79669646  0.43040042  0.40760870
   0.76375651  0.40109855  0.40760870
   0.79119937  0.36995148  0.40760870
   0.75825942  0.34064961  0.40760870
   0.78570228  0.30952715  0.40760870
   0.75276232  0.28022528  0.40760870
   0.78020519  0.24907819  0.40760870
   0.74726515  0.21977632  0.40760870
   0.77470810  0.18865386  0.40760870
   0.74176806  0.15935199  0.40760870
   0.76921101  0.12820491  0.40760870
   0.73627097  0.09890304  0.40760870
   0.76375651  0.06775596  0.40760870
   0.73077388  0.03845409  0.40760870
   0.75825942  0.00733162  0.40760870
   0.90659594  0.97252191  0.40760870
   0.93408148  0.94139945  0.40760870
   0.90109885  0.91209763  0.40760870
   0.92858439  0.88095049  0.40760870
   0.89560176  0.85164867  0.40760870
   0.92308730  0.82050153  0.40760870
   0.89010467  0.79119970  0.40760870
   0.91759021  0.76007720  0.40760870
   0.88460758  0.73077533  0.40760870
   0.91209303  0.69962828  0.40760870
   0.87911040  0.67032641  0.40760870
   0.90659594  0.63920396  0.40760870
   0.87361331  0.60990208  0.40760870
   0.90109885  0.57875499  0.40760870
   0.86811622  0.54945312  0.40760870
   0.89560176  0.51830602  0.40760870
   0.86261913  0.48900416  0.40760870
   0.89010467  0.45788170  0.40760870
   0.85712204  0.42857983  0.40760870
   0.88460758  0.39743273  0.40760870
   0.85166754  0.36813089  0.40760870
   0.87911040  0.33700841  0.40760870
   0.84617045  0.30768193  0.40760870
   0.87361331  0.27655947  0.40760870
   0.84067336  0.24725760  0.40760870
   0.86811622  0.21611053  0.40760870
   0.83517627  0.18680865  0.40760870
   0.86261913  0.15568618  0.40760870
   0.82967909  0.12638431  0.40760870
   0.85712204  0.09523723  0.40760870
   0.82418200  0.06593536  0.40760870
   0.85166754  0.03478828  0.40760870
   0.81868491  0.00548641  0.40760870
   0.99450697  0.93955423  0.40760870
   0.98900988  0.87912995  0.40760870
   0.98351279  0.81868098  0.40760870
   0.97801570  0.75823202  0.40760870
   0.97251861  0.69780769  0.40760870
   0.96702152  0.63735873  0.40760870
   0.99450697  0.60623627  0.40760870
   0.96152434  0.57693440  0.40760870
   0.98900988  0.54578731  0.40760870
   0.95602725  0.51648544  0.40760870
   0.98351279  0.48533834  0.40760870
   0.95053016  0.45603647  0.40760870
   0.97801570  0.42491402  0.40760870
   0.94507566  0.39561215  0.40760870
   0.97251861  0.36446508  0.40760870
   0.93957857  0.33516321  0.40760870
   0.96702152  0.30404072  0.40760870
   0.93408148  0.27471427  0.40760870
   0.96152434  0.24359178  0.40760870
   0.92858439  0.21428992  0.40760870
   0.95602725  0.18314283  0.40760870
   0.92308730  0.15384096  0.40760870
   0.95053016  0.12271849  0.40760870
   0.91759021  0.09341662  0.40760870
   0.94507566  0.06226955  0.40760870
   0.91209303  0.03296768  0.40760870
   0.93957857  0.00182060  0.40760870
   0.00000000  0.33334259  0.59239130
   0.00549710  0.27289365  0.59239130
   0.01099421  0.21244471  0.59239130
   0.01649131  0.15202036  0.59239130
   0.02198841  0.09157142  0.59239130
   0.02748552  0.03114708  0.59239130
   0.00000000  0.00000000  0.59239130
   0.03298262  0.97070137  0.59239130
   0.00549710  0.93955423  0.59239130
   0.03847972  0.91025241  0.59239130
   0.01099421  0.87912995  0.59239130
   0.04397682  0.84982803  0.59239130
   0.01649131  0.81868098  0.59239130
   0.04943132  0.78937907  0.59239130
   0.02198841  0.75823202  0.59239130
   0.05492842  0.72893015  0.59239130
   0.02748552  0.69780769  0.59239130
   0.06042553  0.66850582  0.59239130
   0.03298262  0.63735873  0.59239130
   0.06592263  0.60805686  0.59239130
   0.03847972  0.57693440  0.59239130
   0.07141973  0.54760789  0.59239130
   0.04397682  0.51648544  0.59239130
   0.07691684  0.48718357  0.59239130
   0.04943132  0.45603647  0.59239130
   0.08241394  0.42673460  0.59239130
   0.05492842  0.39561215  0.59239130
   0.08791104  0.36631028  0.59239130
   0.06042553  0.33516321  0.59239130
   0.09340814  0.30586134  0.59239130
   0.06592263  0.27471427  0.59239130
   0.09890526  0.24541240  0.59239130
   0.07141973  0.21428992  0.59239130
   0.10440236  0.18498805  0.59239130
   0.07691684  0.15384096  0.59239130
   0.10989946  0.12453909  0.59239130
   0.08241394  0.09341662  0.59239130
   0.11539656  0.06411475  0.59239130
   0.08791104  0.03296768  0.59239130
   0.12089366  0.00366581  0.59239130
   0.09340814  0.97252191  0.59239130
   0.12639078  0.94322009  0.59239130
   0.09890526  0.91209763  0.59239130
   0.13188787  0.88279571  0.59239130
   0.10440236  0.85164867  0.59239130
   0.13734237  0.82234675  0.59239130
   0.10989946  0.79119970  0.59239130
   0.14283947  0.76189783  0.59239130
   0.11539656  0.73077533  0.59239130
   0.14833657  0.70147346  0.59239130
   0.12089366  0.67032641  0.59239130
   0.15383367  0.64102454  0.59239130
   0.12639078  0.60990208  0.59239130
   0.15933078  0.58057558  0.59239130
   0.13188787  0.54945312  0.59239130
   0.16482788  0.52015125  0.59239130
   0.13734237  0.48900416  0.59239130
   0.17032498  0.45970229  0.59239130
   0.14283947  0.42857983  0.59239130
   0.17582208  0.39927796  0.59239130
   0.14833657  0.36813089  0.59239130
   0.18131920  0.33882902  0.59239130
   0.15383367  0.30768193  0.59239130
   0.18681629  0.27838006  0.59239130
   0.15933078  0.24725760  0.59239130
   0.19231340  0.21795573  0.59239130
   0.16482788  0.18680865  0.59239130
   0.19781051  0.15750678  0.59239130
   0.17032498  0.12638431  0.59239130
   0.20330760  0.09705783  0.59239130
   0.17582208  0.06593536  0.59239130
   0.20880472  0.03663349  0.59239130
   0.18131920  0.00548641  0.59239130
   0.21430180  0.97618777  0.59239130
   0.18681629  0.94506522  0.59239130
   0.21979892  0.91573881  0.59239130
   0.19231340  0.88461635  0.59239130
   0.22529603  0.85531443  0.59239130
   0.19781051  0.82416739  0.59239130
   0.23075051  0.79486547  0.59239130
   0.20330760  0.76374301  0.59239130
   0.23624762  0.73444114  0.59239130
   0.20880472  0.70329410  0.59239130
   0.24174471  0.67399223  0.59239130
   0.21430180  0.64284513  0.59239130
   0.24724183  0.61354326  0.59239130
   0.21979892  0.58242080  0.59239130
   0.25273893  0.55311893  0.59239130
   0.22529603  0.52197184  0.59239130
   0.25823602  0.49266997  0.59239130
   0.23075051  0.46154751  0.59239130
   0.26373314  0.43224564  0.59239130
   0.23624762  0.40109855  0.59239130
   0.26923023  0.37179670  0.59239130
   0.24174471  0.34064961  0.59239130
   0.27472734  0.31134774  0.59239130
   0.24724183  0.28022528  0.59239130
   0.28022445  0.25092341  0.59239130
   0.25273893  0.21977632  0.59239130
   0.28572154  0.19047446  0.59239130
   0.25823602  0.15935199  0.59239130
   0.29121865  0.13002551  0.59239130
   0.26373314  0.09890304  0.59239130
   0.29671574  0.06960117  0.59239130
   0.26923023  0.03845409  0.59239130
   0.30221286  0.00915222  0.59239130
   0.27472734  0.97803290  0.59239130
   0.30770997  0.94870649  0.59239130
   0.28022445  0.91758403  0.59239130
   0.31320706  0.88828211  0.59239130
   0.28572154  0.85713507  0.59239130
   0.31866156  0.82783315  0.59239130
   0.29121865  0.79671069  0.59239130
   0.32415865  0.76740882  0.59239130
   0.29671574  0.73626178  0.59239130
   0.32965577  0.70695991  0.59239130
   0.30221286  0.67581281  0.59239130
   0.33515286  0.64651094  0.59239130
   0.30770997  0.61538849  0.59239130
   0.34064997  0.58608662  0.59239130
   0.31320706  0.55493952  0.59239130
   0.34614708  0.52563765  0.59239130
   0.31866156  0.49451519  0.59239130
   0.35164417  0.46521332  0.59239130
   0.32415865  0.43406623  0.59239130
   0.35714126  0.40476436  0.59239130
   0.32965577  0.37361729  0.59239130
   0.36263840  0.34431542  0.59239130
   0.33515286  0.31319294  0.59239130
   0.36813549  0.28389107  0.59239130
   0.34064997  0.25274400  0.59239130
   0.37363258  0.22344213  0.59239130
   0.34614708  0.19231966  0.59239130
   0.37912971  0.16299319  0.59239130
   0.35164417  0.13187072  0.59239130
   0.38462680  0.10256885  0.59239130
   0.35714126  0.07142178  0.59239130
   0.39012389  0.04211990  0.59239130
   0.36263840  0.01099743  0.59239130
   0.39562102  0.98167417  0.59239130
   0.36813549  0.95055171  0.59239130
   0.40111811  0.92124980  0.59239130
   0.37363258  0.89010275  0.59239130
   0.40657261  0.86080083  0.59239130
   0.37912971  0.82967838  0.59239130
   0.41206971  0.80037655  0.59239130
   0.38462680  0.76922946  0.59239130
   0.41756680  0.73992759  0.59239130
   0.39012389  0.70878049  0.59239130
   0.42306393  0.67947863  0.59239130
   0.39562102  0.64835617  0.59239130
   0.42856102  0.61905430  0.59239130
   0.40111811  0.58790721  0.59239130
   0.43405811  0.55860533  0.59239130
   0.40657261  0.52748288  0.59239130
   0.43955520  0.49815637  0.59239130
   0.41206971  0.46703391  0.59239130
   0.44505234  0.43773204  0.59239130
   0.41756680  0.40658495  0.59239130
   0.45054943  0.37728310  0.59239130
   0.42306393  0.34616062  0.59239130
   0.45604652  0.31685875  0.59239130
   0.42856102  0.28571168  0.59239130
   0.46154365  0.25640981  0.59239130
   0.43405811  0.22526274  0.59239130
   0.46704074  0.19596087  0.59239130
   0.43955520  0.16483839  0.59239130
   0.47253783  0.13553652  0.59239130
   0.44505234  0.10438945  0.59239130
   0.47803496  0.07508758  0.59239130
   0.45054943  0.04396511  0.59239130
   0.48353205  0.01466324  0.59239130
   0.45604652  0.98351940  0.59239130
   0.48902915  0.95421748  0.59239130
   0.46154365  0.92307043  0.59239130
   0.49452624  0.89376852  0.59239130
   0.46704074  0.86264606  0.59239130
   0.49998074  0.83334423  0.59239130
   0.47253783  0.80219710  0.59239130
   0.50547787  0.77289527  0.59239130
   0.47803496  0.74174818  0.59239130
   0.51097496  0.71244631  0.59239130
   0.48353205  0.68132385  0.59239130
   0.51647205  0.65202198  0.59239130
   0.48902915  0.62087489  0.59239130
   0.52196914  0.59157302  0.59239130
   0.49452624  0.56045056  0.59239130
   0.52746628  0.53112406  0.59239130
   0.49998074  0.50000160  0.59239130
   0.53296337  0.47069973  0.59239130
   0.50547787  0.43955263  0.59239130
   0.53846046  0.41025076  0.59239130
   0.51097496  0.37912831  0.59239130
   0.54395759  0.34982644  0.59239130
   0.51647205  0.31867937  0.59239130
   0.54945469  0.28937749  0.59239130
   0.52196914  0.25823042  0.59239130
   0.55495177  0.22892855  0.59239130
   0.52746628  0.19780607  0.59239130
   0.56044890  0.16850420  0.59239130
   0.53296337  0.13735713  0.59239130
   0.56594599  0.10805526  0.59239130
   0.53846046  0.07693279  0.59239130
   0.57144309  0.04763092  0.59239130
   0.54395759  0.01648384  0.59239130
   0.57694018  0.98718516  0.59239130
   0.54945469  0.95603812  0.59239130
   0.58243731  0.92673620  0.59239130
   0.55495177  0.89561374  0.59239130
   0.58789177  0.86631192  0.59239130
   0.56044890  0.83516478  0.59239130
   0.59338890  0.80586296  0.59239130
   0.56594599  0.77471586  0.59239130
   0.59888599  0.74541399  0.59239130
   0.57144309  0.71429153  0.59239130
   0.60438308  0.68498962  0.59239130
   0.57694018  0.65384257  0.59239130
   0.60988022  0.62454070  0.59239130
   0.58243731  0.59341824  0.59239130
   0.61537731  0.56409174  0.59239130
   0.58789177  0.53296928  0.59239130
   0.62087440  0.50366741  0.59239130
   0.59338890  0.47252032  0.59239130
   0.62637153  0.44321845  0.59239130
   0.59888599  0.41209599  0.59239130
   0.63186862  0.38279412  0.59239130
   0.60438308  0.35164705  0.59239130
   0.63736571  0.32234518  0.59239130
   0.60988022  0.29119811  0.59239130
   0.64286284  0.26189624  0.59239130
   0.61537731  0.23077376  0.59239130
   0.64835994  0.20147189  0.59239130
   0.62087440  0.17032481  0.59239130
   0.65385703  0.14102293  0.59239130
   0.62637153  0.10990046  0.59239130
   0.65935412  0.08057399  0.59239130
   0.63186862  0.04945152  0.59239130
   0.66485125  0.02014965  0.59239130
   0.63736571  0.98900580  0.59239130
   0.67034834  0.95970388  0.59239130
   0.64286284  0.92858143  0.59239130
   0.67584544  0.89927951  0.59239130
   0.64835994  0.86813246  0.59239130
   0.68129994  0.83883064  0.59239130
   0.65385703  0.80768350  0.59239130
   0.68679707  0.77838167  0.59239130
   0.65935412  0.74725917  0.59239130
   0.69229416  0.71795730  0.59239130
   0.66485125  0.68681025  0.59239130
   0.69779125  0.65750838  0.59239130
   0.67034834  0.62638588  0.59239130
   0.70328834  0.59705942  0.59239130
   0.67584544  0.56593696  0.59239130
   0.70878543  0.53663509  0.59239130
   0.68129994  0.50548800  0.59239130
   0.71428252  0.47618613  0.59239130
   0.68679707  0.44506367  0.59239130
   0.71977970  0.41576180  0.59239130
   0.69229416  0.38461473  0.59239130
   0.72527679  0.35531286  0.59239130
   0.69779125  0.32416576  0.59239130
   0.73077388  0.29486390  0.59239130
   0.70328834  0.26374144  0.59239130
   0.73627097  0.23443957  0.59239130
   0.70878543  0.20329247  0.59239130
   0.74176806  0.17399062  0.59239130
   0.71428252  0.14286815  0.59239130
   0.74726515  0.11354167  0.59239130
   0.71977970  0.08241919  0.59239130
   0.75276232  0.05311733  0.59239130
   0.72527679  0.02197025  0.59239130
   0.75825942  0.99267157  0.59239130
   0.73077388  0.96154911  0.59239130
   0.76375651  0.93222260  0.59239130
   0.73627097  0.90110014  0.59239130
   0.76921101  0.87179832  0.59239130
   0.74176806  0.84065118  0.59239130
   0.77470810  0.81134936  0.59239130
   0.74726515  0.78022685  0.59239130
   0.78020519  0.75092498  0.59239130
   0.75276232  0.71977793  0.59239130
   0.78570228  0.69047606  0.59239130
   0.75825942  0.65932897  0.59239130
[...]
  290        0.867   1.793   0.000   2.661
  291        0.867   1.795   0.000   2.662
  292        0.867   1.794   0.000   2.661
  293        0.867   1.794   0.000   2.661
  294        0.867   1.793   0.000   2.661
  295        0.867   1.794   0.000   2.661
  296        0.867   1.794   0.000   2.661
  297        0.867   1.794   0.000   2.661
  298        0.867   1.794   0.000   2.661
  299        0.867   1.794   0.000   2.661
  300        0.867   1.795   0.000   2.662
  301        0.867   1.794   0.000   2.661
  302        0.867   1.794   0.000   2.661
  303        0.867   1.794   0.000   2.661
  304        0.867   1.794   0.000   2.661
  305        0.867   1.794   0.000   2.661
  306        0.867   1.794   0.000   2.661
  307        0.867   1.794   0.000   2.661
  308        0.867   1.794   0.000   2.662
  309        0.867   1.794   0.000   2.661
  310        0.867   1.794   0.000   2.661
  311        0.867   1.793   0.000   2.661
  312        0.867   1.794   0.000   2.661
  313        0.867   1.794   0.000   2.661
  314        0.867   1.794   0.000   2.661
  315        0.867   1.793   0.000   2.660
  316        0.867   1.794   0.000   2.661
  317        0.867   1.793   0.000   2.661
  318        0.867   1.795   0.000   2.662
  319        0.867   1.794   0.000   2.661
  320        0.867   1.794   0.000   2.661
  321        0.867   1.794   0.000   2.661
  322        0.867   1.793   0.000   2.661
  323        0.867   1.795   0.000   2.662
  324        0.867   1.794   0.000   2.661
  325        0.867   1.795   0.000   2.662
  326        0.867   1.793   0.000   2.661
  327        0.867   1.795   0.000   2.662
  328        0.867   1.794   0.000   2.661
  329        0.867   1.794   0.000   2.661
  330        0.867   1.794   0.000   2.661
  331        0.867   1.794   0.000   2.661
  332        0.867   1.794   0.000   2.661
  333        0.867   1.794   0.000   2.661
  334        0.867   1.795   0.000   2.662
  335        0.867   1.794   0.000   2.661
  336        0.867   1.794   0.000   2.662
  337        0.867   1.794   0.000   2.661
  338        0.867   1.794   0.000   2.661
  339        0.867   1.794   0.000   2.661
  340        0.867   1.794   0.000   2.661
  341        0.867   1.793   0.000   2.661
  342        0.867   1.793   0.000   2.661
  343        0.867   1.793   0.000   2.660
  344        0.867   1.794   0.000   2.661
  345        0.867   1.793   0.000   2.661
  346        0.867   1.794   0.000   2.662
  347        0.867   1.794   0.000   2.661
  348        0.867   1.794   0.000   2.661
  349        0.867   1.794   0.000   2.661
  350        0.867   1.793   0.000   2.660
  351        0.867   1.795   0.000   2.662
  352        0.867   1.793   0.000   2.660
  353        0.867   1.795   0.000   2.662
  354        0.867   1.793   0.000   2.660
  355        0.867   1.795   0.000   2.662
  356        0.867   1.793   0.000   2.661
  357        0.867   1.794   0.000   2.661
  358        0.867   1.794   0.000   2.661
  359        0.867   1.794   0.000   2.661
  360        0.867   1.794   0.000   2.661
  361        0.867   1.794   0.000   2.662
  362        0.867   1.794   0.000   2.662
  363        0.867   1.794   0.000   2.662
  364        0.867   1.795   0.000   2.662
  365        0.867   1.795   0.000   2.662
  366        0.867   1.795   0.000   2.662
  367        0.867   1.794   0.000   2.661
  368        0.867   1.794   0.000   2.661
  369        0.867   1.794   0.000   2.661
  370        0.867   1.794   0.000   2.661
  371        0.867   1.795   0.000   2.662
  372        0.867   1.794   0.000   2.662
  373        0.867   1.794   0.000   2.661
  374        0.867   1.794   0.000   2.661
  375        0.867   1.794   0.000   2.661
  376        0.867   1.794   0.000   2.661
  377        0.867   1.795   0.000   2.662
  378        0.867   1.794   0.000   2.661
  379        0.867   1.795   0.000   2.661
  380        0.867   1.793   0.000   2.660
  381        0.867   1.794   0.000   2.661
  382        0.867   1.793   0.000   2.661
  383        0.867   1.795   0.000   2.662
  384        0.867   1.793   0.000   2.661
  385        0.867   1.794   0.000   2.661
  386        0.867   1.794   0.000   2.661
  387        0.867   1.794   0.000   2.661
  388        0.867   1.794   0.000   2.661
  389        0.867   1.794   0.000   2.661
  390        0.867   1.794   0.000   2.661
  391        0.867   1.793   0.000   2.660
  392        0.867   1.795   0.000   2.662
  393        0.867   1.793   0.000   2.661
  394        0.867   1.795   0.000   2.662
  395        0.867   1.793   0.000   2.661
  396        0.867   1.794   0.000   2.661
  397        0.867   1.793   0.000   2.661
  398        0.867   1.794   0.000   2.662
  399        0.867   1.794   0.000   2.661
  400        0.867   1.794   0.000   2.661
  401        0.867   1.794   0.000   2.661
  402        0.867   1.794   0.000   2.661
  403        0.867   1.795   0.000   2.662
  404        0.867   1.794   0.000   2.662
  405        0.867   1.794   0.000   2.661
  406        0.867   1.794   0.000   2.661
  407        0.867   1.794   0.000   2.661
  408        0.867   1.794   0.000   2.661
  409        0.867   1.794   0.000   2.661
  410        0.867   1.794   0.000   2.661
  411        0.867   1.794   0.000   2.661
  412        0.867   1.793   0.000   2.661
  413        0.867   1.794   0.000   2.661
  414        0.867   1.793   0.000   2.661
  415        0.867   1.794   0.000   2.661
  416        0.867   1.793   0.000   2.661
  417        0.867   1.794   0.000   2.662
  418        0.867   1.794   0.000   2.661
  419        0.867   1.794   0.000   2.661
  420        0.867   1.794   0.000   2.661
  421        0.867   1.794   0.000   2.661
  422        0.867   1.794   0.000   2.661
  423        0.867   1.793   0.000   2.660
  424        0.867   1.795   0.000   2.662
  425        0.867   1.793   0.000   2.661
  426        0.867   1.795   0.000   2.662
  427        0.867   1.793   0.000   2.661
  428        0.867   1.794   0.000   2.661
  429        0.867   1.794   0.000   2.661
  430        0.867   1.794   0.000   2.661
  431        0.867   1.794   0.000   2.661
  432        0.867   1.794   0.000   2.661
  433        0.867   1.795   0.000   2.662
  434        0.867   1.794   0.000   2.661
  435        0.867   1.795   0.000   2.662
  436        0.867   1.794   0.000   2.661
  437        0.867   1.794   0.000   2.661
  438        0.867   1.794   0.000   2.661
  439        0.867   1.794   0.000   2.661
  440        0.867   1.794   0.000   2.661
  441        0.867   1.794   0.000   2.661
  442        0.867   1.794   0.000   2.661
  443        0.867   1.794   0.000   2.661
  444        0.867   1.794   0.000   2.661
  445        0.867   1.794   0.000   2.661
  446        0.867   1.794   0.000   2.661
  447        0.867   1.794   0.000   2.661
  448        0.867   1.794   0.000   2.661
  449        0.867   1.794   0.000   2.661
  450        0.867   1.794   0.000   2.661
  451        0.867   1.794   0.000   2.661
  452        0.867   1.794   0.000   2.661
  453        0.867   1.794   0.000   2.662
  454        0.867   1.794   0.000   2.661
  455        0.867   1.794   0.000   2.661
  456        0.867   1.795   0.000   2.662
  457        0.867   1.794   0.000   2.661
  458        0.867   1.795   0.000   2.662
  459        0.867   1.794   0.000   2.661
  460        0.867   1.794   0.000   2.661
  461        0.867   1.794   0.000   2.661
  462        0.867   1.794   0.000   2.661
  463        0.867   1.794   0.000   2.661
  464        0.867   1.793   0.000   2.661
  465        0.867   1.794   0.000   2.661
  466        0.867   1.794   0.000   2.661
  467        0.867   1.794   0.000   2.661
  468        0.867   1.793   0.000   2.661
  469        0.867   1.794   0.000   2.661
  470        0.867   1.794   0.000   2.661
  471        0.867   1.794   0.000   2.661
  472        0.867   1.794   0.000   2.661
  473        0.867   1.794   0.000   2.661
  474        0.867   1.794   0.000   2.662
  475        0.867   1.794   0.000   2.661
  476        0.867   1.794   0.000   2.661
  477        0.867   1.793   0.000   2.661
  478        0.867   1.794   0.000   2.661
  479        0.867   1.794   0.000   2.661
  480        0.867   1.794   0.000   2.661
  481        0.867   1.794   0.000   2.661
  482        0.867   1.794   0.000   2.661
  483        0.867   1.794   0.000   2.661
  484        0.867   1.794   0.000   2.661
  485        0.867   1.794   0.000   2.661
  486        0.867   1.794   0.000   2.661
  487        0.867   1.794   0.000   2.661
  488        0.867   1.795   0.000   2.662
  489        0.867   1.794   0.000   2.661
  490        0.867   1.795   0.000   2.662
  491        0.867   1.794   0.000   2.661
  492        0.867   1.794   0.000   2.661
  493        0.867   1.794   0.000   2.661
  494        0.867   1.794   0.000   2.661
  495        0.867   1.794   0.000   2.661
  496        0.867   1.794   0.000   2.661
  497        0.867   1.795   0.000   2.662
  498        0.867   1.793   0.000   2.661
  499        0.867   1.795   0.000   2.662
  500        0.867   1.793   0.000   2.661
  501        0.867   1.795   0.000   2.662
  502        0.867   1.794   0.000   2.661
  503        0.867   1.794   0.000   2.661
  504        0.867   1.794   0.000   2.661
  505        0.867   1.794   0.000   2.661
  506        0.867   1.794   0.000   2.662
  507        0.867   1.794   0.000   2.661
  508        0.867   1.794   0.000   2.661
  509        0.867   1.793   0.000   2.660
  510        0.867   1.794   0.000   2.661
  511        0.867   1.793   0.000   2.661
  512        0.867   1.795   0.000   2.662
  513        0.867   1.794   0.000   2.661
  514        0.867   1.794   0.000   2.661
  515        0.867   1.794   0.000   2.661
  516        0.867   1.794   0.000   2.662
  517        0.867   1.794   0.000   2.661
  518        0.867   1.794   0.000   2.662
  519        0.867   1.794   0.000   2.661
  520        0.867   1.795   0.000   2.662
  521        0.867   1.794   0.000   2.661
  522        0.867   1.794   0.000   2.662
  523        0.867   1.794   0.000   2.662
  524        0.867   1.794   0.000   2.661
  525        0.867   1.794   0.000   2.661
  526        0.867   1.794   0.000   2.661
  527        0.867   1.794   0.000   2.662
  528        0.867   1.794   0.000   2.661
  529        0.867   1.795   0.000   2.662
  530        0.867   1.793   0.000   2.660
  531        0.867   1.795   0.000   2.661
  532        0.867   1.793   0.000   2.661
  533        0.867   1.795   0.000   2.662
  534        0.867   1.793   0.000   2.660
  535        0.867   1.794   0.000   2.661
  536        0.867   1.794   0.000   2.661
  537        0.867   1.794   0.000   2.661
  538        0.867   1.794   0.000   2.662
  539        0.867   1.794   0.000   2.661
  540        0.867   1.794   0.000   2.661
  541        0.867   1.793   0.000   2.660
  542        0.867   1.795   0.000   2.662
  543        0.867   1.793   0.000   2.661
  544        0.867   1.795   0.000   2.662
  545        0.867   1.794   0.000   2.661
  546        0.867   1.794   0.000   2.661
  547        0.867   1.794   0.000   2.661
  548        0.867   1.795   0.000   2.662
  549        0.867   1.794   0.000   2.661
  550        0.867   1.794   0.000   2.661
  551        0.867   1.794   0.000   2.661
  552        0.867   1.794   0.000   2.661
  553        0.867   1.794   0.000   2.662
  554        0.867   1.794   0.000   2.662
  555        0.867   1.794   0.000   2.661
  556        0.867   1.794   0.000   2.661
  557        0.867   1.794   0.000   2.661
  558        0.867   1.794   0.000   2.661
  559        0.867   1.795   0.000   2.662
  560        0.867   1.794   0.000   2.661
  561        0.867   1.795   0.000   2.662
  562        0.867   1.793   0.000   2.660
  563        0.867   1.795   0.000   2.661
  564        0.867   1.793   0.000   2.661
  565        0.867   1.795   0.000   2.662
  566        0.867   1.793   0.000   2.661
  567        0.867   1.794   0.000   2.661
  568        0.867   1.794   0.000   2.661
  569        0.867   1.794   0.000   2.661
  570        0.867   1.794   0.000   2.661
  571        0.867   1.794   0.000   2.661
  572        0.867   1.794   0.000   2.661
  573        0.867   1.793   0.000   2.660
  574        0.867   1.795   0.000   2.662
  575        0.867   1.793   0.000   2.661
  576        0.867   1.795   0.000   2.662
  577        0.867   1.793   0.000   2.661
  578        0.867   1.794   0.000   2.661
  579        0.867   1.793   0.000   2.660
  580        0.867   1.794   0.000   2.661
  581        0.867   1.794   0.000   2.661
  582        0.867   1.794   0.000   2.661
  583        0.867   1.794   0.000   2.661
  584        0.867   1.794   0.000   2.662
  585        0.867   1.794   0.000   2.661
  586        0.867   1.794   0.000   2.662
  587        0.867   1.795   0.000   2.662
  588        0.867   1.794   0.000   2.661
  589        0.867   1.794   0.000   2.661
  590        0.867   1.794   0.000   2.661
  591        0.867   1.794   0.000   2.662
  592        0.867   1.794   0.000   2.661
  593        0.867   1.794   0.000   2.661
  594        0.867   1.793   0.000   2.661
  595        0.867   1.794   0.000   2.661
  596        0.867   1.794   0.000   2.661
  597        0.867   1.794   0.000   2.661
  598        0.867   1.793   0.000   2.661
  599        0.867   1.795   0.000   2.662
  600        0.867   1.794   0.000   2.661
  601        0.867   1.794   0.000   2.661
  602        0.867   1.794   0.000   2.661
  603        0.867   1.794   0.000   2.661
  604        0.867   1.794   0.000   2.661
  605        0.867   1.793   0.000   2.661
  606        0.867   1.795   0.000   2.662
  607        0.867   1.794   0.000   2.661
  608        0.867   1.795   0.000   2.662
  609        0.867   1.793   0.000   2.661
  610        0.867   1.794   0.000   2.661
  611        0.867   1.794   0.000   2.661
  612        0.867   1.794   0.000   2.661
  613        0.867   1.794   0.000   2.661
  614        0.867   1.794   0.000   2.661
  615        0.867   1.794   0.000   2.662
  616        0.867   1.794   0.000   2.661
  617        0.867   1.795   0.000   2.662
  618        0.867   1.794   0.000   2.661
  619        0.867   1.795   0.000   2.662
  620        0.867   1.794   0.000   2.661
  621        0.867   1.794   0.000   2.661
  622        0.867   1.794   0.000   2.661
  623        0.867   1.794   0.000   2.661
  624        0.867   1.794   0.000   2.661
  625        0.867   1.794   0.000   2.661
  626        0.867   1.794   0.000   2.661
  627        0.867   1.794   0.000   2.661
  628        0.867   1.794   0.000   2.661
  629        0.867   1.794   0.000   2.661
  630        0.867   1.794   0.000   2.661
  631        0.867   1.794   0.000   2.661
  632        0.867   1.794   0.000   2.661
  633        0.867   1.794   0.000   2.661
  634        0.867   1.794   0.000   2.661
  635        0.867   1.794   0.000   2.661
  636        0.867   1.794   0.000   2.661
  637        0.867   1.794   0.000   2.661
  638        0.867   1.794   0.000   2.661
  639        0.867   1.793   0.000   2.661
  640        0.867   1.795   0.000   2.662
  641        0.867   1.794   0.000   2.661
  642        0.867   1.794   0.000   2.661
  643        0.867   1.794   0.000   2.661
  644        0.867   1.794   0.000   2.661
  645        0.867   1.794   0.000   2.661
  646        0.867   1.794   0.000   2.661
  647        0.867   1.794   0.000   2.661
  648        0.867   1.793   0.000   2.661
  649        0.867   1.794   0.000   2.661
  650        0.867   1.793   0.000   2.661
  651        0.867   1.794   0.000   2.661
  652        0.867   1.794   0.000   2.661
  653        0.867   1.794   0.000   2.661
  654        0.867   1.794   0.000   2.661
  655        0.867   1.794   0.000   2.661
  656        0.867   1.795   0.000   2.662
  657        0.867   1.794   0.000   2.661
  658        0.867   1.794   0.000   2.661
  659        0.867   1.794   0.000   2.661
  660        0.867   1.794   0.000   2.661
  661        0.867   1.794   0.000   2.661
  662        0.867   1.794   0.000   2.661
  663        0.867   1.794   0.000   2.661
  664        0.867   1.794   0.000   2.661
  665        0.867   1.794   0.000   2.661
  666        0.867   1.794   0.000   2.661
  667        0.867   1.794   0.000   2.661
  668        0.867   1.794   0.000   2.661
  669        0.867   1.794   0.000   2.661
  670        0.867   1.794   0.000   2.662
  671        0.867   1.794   0.000   2.661
  672        0.867   1.795   0.000   2.662
  673        0.867   1.794   0.000   2.661
  674        0.867   1.794   0.000   2.661
  675        0.867   1.794   0.000   2.661
  676        0.867   1.794   0.000   2.661
  677        0.867   1.794   0.000   2.662
  678        0.867   1.794   0.000   2.661
  679        0.867   1.795   0.000   2.662
  680        0.867   1.793   0.000   2.661
  681        0.867   1.795   0.000   2.662
  682        0.867   1.794   0.000   2.661
  683        0.867   1.795   0.000   2.662
  684        0.867   1.793   0.000   2.661
  685        0.867   1.794   0.000   2.661
  686        0.867   1.794   0.000   2.661
  687        0.867   1.794   0.000   2.661
  688        0.867   1.794   0.000   2.662
  689        0.867   1.793   0.000   2.661
  690        0.867   1.794   0.000   2.661
  691        0.867   1.793   0.000   2.660
  692        0.867   1.794   0.000   2.661
  693        0.867   1.793   0.000   2.661
  694        0.867   1.794   0.000   2.661
  695        0.867   1.794   0.000   2.661
  696        0.867   1.794   0.000   2.662
  697        0.867   1.794   0.000   2.661
  698        0.867   1.794   0.000   2.661
  699        0.867   1.794   0.000   2.661
  700        0.867   1.794   0.000   2.661
  701        0.867   1.794   0.000   2.661
  702        0.867   1.795   0.000   2.662
  703        0.867   1.794   0.000   2.661
  704        0.867   1.794   0.000   2.662
  705        0.867   1.795   0.000   2.662
  706        0.867   1.794   0.000   2.661
  707        0.867   1.794   0.000   2.661
  708        0.867   1.794   0.000   2.661
  709        0.867   1.794   0.000   2.662
  710        0.867   1.794   0.000   2.661
  711        0.867   1.795   0.000   2.662
  712        0.867   1.793   0.000   2.660
  713        0.867   1.795   0.000   2.661
  714        0.867   1.793   0.000   2.660
  715        0.867   1.795   0.000   2.661
  716        0.867   1.793   0.000   2.660
  717        0.867   1.794   0.000   2.661
  718        0.867   1.794   0.000   2.661
  719        0.867   1.794   0.000   2.661
  720        0.867   1.794   0.000   2.661
  721        0.867   1.794   0.000   2.661
  722        0.867   1.794   0.000   2.661
  723        0.867   1.793   0.000   2.660
  724        0.867   1.793   0.000   2.661
  725        0.867   1.794   0.000   2.661
  726        0.867   1.794   0.000   2.661
  727        0.867   1.794   0.000   2.661
  728        0.867   1.794   0.000   2.661
--------------------------------------------------
tot        631.2591306.062   0.0001937.321


 total amount of memory used by VASP MPI-rank0   385098. kBytes
=======================================================================

   base      :      30000. kBytes
   nonlr-proj:      24495. kBytes
   fftplans  :      28067. kBytes
   grid      :      38835. kBytes
   one-center:        374. kBytes
   wavefun   :     263327. kBytes

  
  
 General timing and accounting informations for this job:
 ========================================================
  
                  Total CPU time used (sec):    41864.207
                            User time (sec):    27351.669
                          System time (sec):    14512.536
                         Elapsed time (sec):    41980.845
  
                   Maximum memory used (kb):      621504.
                   Average memory used (kb):           0.
  
                          Minor page faults:     82013749
                          Major page faults:            7
                 Voluntary context switches:        25421
