ITEM: TIMESTEP
317
ITEM: NUMBER OF ATOMS
23816
ITEM: BOX BOUNDS pp pp pp
0.0000000000000000e+00 1.3400400500000001e+02
0.0000000000000000e+00 2.3210174599999999e+02
0.0000000000000000e+00 1.5000000000000000e+01
ITEM: ATOMS id type x y z c_csym c_2[1] c_2[2] c_2[3] c_2[4] c_2[5] c_2[6] c_3 
215 1 0.865412 8.58061 2.91392 6.01168 -178331 -145492 -3109.94 -32924.6 17545.2 -2416.2 -7.41562 
216 1 0.135938 7.36514 2.90982 6.01661 -153233 -167122 3241 -27070.5 26569.5 -2347.23 -7.41616 
217 1 0.823097 6.12494 2.90566 6.01281 -175121 -148131 -1089.3 -21403.4 19414.6 -3125.12 -7.41554 
218 1 0.0924518 4.9101 2.9014 6.01958 -155344 -166075 1065.17 -14778.8 22316.5 -1628.92 -7.41565 
219 1 0.77854 3.66937 2.89785 6.01683 -169849 -152298 -424.565 -9276.59 15592.5 -3813.26 -7.41538 
220 1 0.0468614 2.45508 2.89471 6.02401 -157794 -163916 -298.835 -4132.17 12704.4 -674.846 -7.41532 
221 1 0.73222 1.214 2.89301 6.02467 -163705 -157836 -609.666 -1533.95 6062.83 -3979.72 -7.41525 
222 1 -8.71366e-06 2.9611e-06 2.89213 6.02908 -160787 -160679 -720.384 37.2336 -1.1523 0.407376 -7.41521 
405 1 2.28288 8.55413 2.91461 6.01149 -170412 -149603 3734.99 -27693.2 25896.2 -5069.54 -7.41639 
406 1 2.96992 7.31376 2.91149 6.01347 -192131 -130725 -659.96 -25263.3 16866.8 -10842.2 -7.41578 
407 1 2.24054 6.09815 2.90676 6.01295 -169616 -151976 1436.15 -15331.8 24206.7 -7424.61 -7.41587 
408 1 2.92664 4.85735 2.90392 6.01444 -184209 -137967 421.726 -12430.2 16413.7 -13263.6 -7.41564 
409 1 2.19598 3.64243 2.89932 6.01618 -166793 -155354 -11.4943 -2697.26 17196.8 -9146.6 -7.41548 
410 1 2.88139 2.40134 2.89786 6.01988 -173076 -148576 258.507 -1912.33 10436.8 -14639.7 -7.41546 
411 1 2.14968 1.18701 2.8947 6.0206 -162653 -159084 -533.212 5121.22 5701.74 -10233.2 -7.41529 
594 1 5.11546 8.5041 2.91783 6.01112 -205389 -115790 874.187 -25365.3 12389 -15124.2 -7.41617 
595 1 4.3873 7.28773 2.91355 6.00672 -184541 -137597 493.927 -12447.6 22150.8 -8941.75 -7.41601 
596 1 5.07347 6.04689 2.91161 6.01274 -197737 -123364 2165.12 -11919.8 14565.7 -18798.6 -7.41609 
597 1 4.34403 4.83121 2.90678 6.01005 -179238 -143681 -630.561 1977.44 18077 -13010.7 -7.41564 
598 1 5.02957 3.59015 2.9057 6.01713 -185116 -135978 2026.68 992.324 12329.6 -21564.6 -7.41589 
599 1 4.29881 2.37519 2.90138 6.01409 -170621 -152032 -691.524 13349.6 9328.15 -16209.4 -7.41545 
600 1 4.98416 1.13412 2.90205 6.01657 -168995 -152626 842.273 8556.08 5551.07 -22175.8 -7.41565 
783 1 6.53279 8.479 2.92017 6.00437 -195351 -126385 -1860.33 -8701.85 17378.2 -7100.29 -7.41601 
784 1 7.21917 7.23823 2.91905 6.00827 -206023 -112502 4720.45 -10303.7 11166.8 -20249.3 -7.41662 
785 1 6.49081 6.02185 2.91479 6.00653 -190322 -133067 -2626.45 7232.29 15515 -12247.1 -7.41572 
786 1 7.17662 4.78089 2.91407 6.01286 -194956 -124355 4521.17 4630.36 11904.6 -23623.4 -7.41644 
787 1 6.44694 3.56522 2.90977 6.01086 -180728 -142967 -2056.9 21839.7 9877.5 -16874.6 -7.41558 
788 1 7.13251 2.32426 2.91023 6.01439 -179093 -141661 2883.97 15869.5 8717.78 -25307.7 -7.41614 
789 1 6.4016 1.10928 2.90674 6.01323 -167480 -155413 -449.644 30097 1005.9 -20334.3 -7.41564 
972 1 9.36408 8.43109 2.92549 6.00608 -208002 -107340 8016.05 -9552.13 7851.01 -19295.6 -7.41717 
973 1 8.63649 7.21422 2.92189 6.00671 -196000 -126172 -5785.84 10710.4 10954.4 -8743.19 -7.41568 
974 1 9.32273 5.97347 2.92133 6.00975 -199480 -117041 7643.66 6687.85 10357 -22021.2 -7.41702 
975 1 8.59397 4.7572 2.91765 6.01031 -188083 -135504 -4728.47 27732.7 7769.4 -13501.9 -7.4156 
976 1 9.27991 3.51642 2.91782 6.0134 -186393 -132095 5656.12 21005.3 9999.82 -23938.8 -7.4167 
977 1 8.54991 2.30082 2.91455 6.01395 -175591 -147777 -2331.88 40142.8 1779.07 -17661.6 -7.41572 
978 1 9.23596 1.06024 2.91592 6.00756 -169333 -151286 2361.14 29084.5 6482.33 -23840.4 -7.41629 
11937 2 0.552058 8.60558 6.48592 6.01286 -145979 -173412 4522.14 32863.4 26411.6 1503.21 -7.41644 
11938 2 0.59437 6.15081 6.4943 6.01715 -149039 -172081 2026.51 21788.8 24840.6 105.894 -7.41589 
11939 2 0.638924 3.69604 6.50214 6.01987 -152974 -168659 257.905 9644.95 17897 -1718.62 -7.41546 
11940 2 0.685243 1.24113 6.50699 6.02463 -157939 -163664 -610.109 1797.16 6477.65 -3261.38 -7.41524 
11941 2 3.31015e-06 2.71728e-06 6.50787 6.0291 -160753 -160688 -720.298 -17.9842 -1.37058 0.316453 -7.41521 
12123 2 1.96966 8.63213 6.4852 6.00649 -153580 -169740 -2626.34 28415.8 18362.5 -7313.02 -7.41572 
12124 2 2.70003 7.41721 6.48839 6.01275 -131546 -189497 2164.63 26190.4 23563.2 -3214.13 -7.41608 
12125 2 2.01194 6.17765 6.49322 6.01003 -154217 -168688 -630.21 16392.8 20305.1 -9150.48 -7.41564 
12126 2 2.74327 4.96323 6.49608 6.01443 -138678 -183429 421.083 13798.4 19692.4 -7583.24 -7.41564 
12127 2 2.05645 3.723 6.50068 6.01617 -155800 -166236 -11.2456 3595.1 16518.7 -10320 -7.41548 
12128 2 2.7885 2.50893 6.50214 6.0168 -148667 -173475 -424.408 2915.45 11098.9 -11596.8 -7.41538 
12129 2 2.10273 1.26813 6.50529 6.02395 -158733 -162828 -298.566 -4788.76 6935.56 -10665.5 -7.41532 
12130 2 2.83495 0.0541007 6.50447 6.02044 -160723 -161090 -341.222 -1789.66 -163.364 -14150.3 -7.41534 
12312 2 4.80704 8.68217 6.48217 6.01114 -116163 -204872 873.573 26086.1 19292.5 -3167.02 -7.41617 
12313 2 4.11771 7.44338 6.48645 6.00674 -138480 -183477 493.934 14087.4 18819 -14713.3 -7.41601 
12314 2 4.84895 6.22891 6.4885 6.01352 -124213 -198590 -660.473 13884.3 17823.8 -9185.36 -7.41577 
12315 2 4.16088 4.98944 6.49323 6.01298 -143052 -178453 1435.62 -65.7792 18532.9 -17252.1 -7.41587 
12316 2 4.89281 3.77529 6.49434 6.01284 -136341 -186825 -1089.26 972.257 12414.1 -15251.2 -7.41554 
12317 2 4.20604 2.53511 6.4986 6.01958 -150624 -170788 1064.47 -12022.8 12569 -18511.2 -7.41565 
12318 2 4.93819 1.32101 6.49795 6.01307 -151874 -170719 -469.537 -7744.31 3758.15 -19962.3 -7.41551 
12319 2 4.25242 0.0802576 6.50068 6.01665 -160472 -161514 67.145 -17247.9 2129.56 -18148.2 -7.41547 
12501 2 6.22482 8.70747 6.48027 6.0062 -125368 -194408 2684.19 9993.85 14907.9 -16887.7 -7.41647 
12502 2 6.95585 7.49286 6.48157 6.01559 -113609 -209283 -3062.74 11918.7 13734.9 -7095.52 -7.4158 
12503 2 6.26666 6.25409 6.48539 6.01154 -130889 -189119 3733.56 -4850.24 17338.6 -19892.5 -7.41639 
12504 2 6.99832 5.03977 6.48607 6.01181 -125264 -198635 -3109.65 -2258.88 10866 -13985.4 -7.41562 
12505 2 6.31043 3.80029 6.49018 6.01667 -140259 -180236 3239.69 -19560.7 15317.3 -21836.1 -7.41616 
12506 2 7.0424 2.58604 6.48972 6.00882 -141375 -182202 -1818.34 -14170.6 5055.34 -20158.6 -7.41563 
12507 2 6.35572 1.34587 6.49321 6.01495 -153000 -168390 1587.85 -29230.1 8509.35 -22068 -7.41586 
12508 2 7.08746 0.13141 6.49119 6.00929 -160226 -162080 443.528 -19547.9 -2314.78 -24210.8 -7.41583 
12690 2 9.06367 8.75534 6.47656 6.01739 -108569 -212770 -6406.88 10152.1 9374.29 -3285.49 -7.41574 
12691 2 8.37364 7.51706 6.47893 6.01115 -122989 -194476 6758.79 -8649.76 13923.7 -19594.2 -7.41694 
12692 2 9.10489 6.30247 6.47912 6.01258 -118606 -204379 -6254.66 -4628.58 7913.93 -9583.8 -7.4156 
12693 2 8.41602 5.06358 6.48226 6.01251 -131704 -186444 6079.2 -24999.7 15039.6 -21275.1 -7.41674 
12694 2 9.14766 3.8491 6.48189 6.00734 -132934 -190565 -4487.52 -18854.1 4333.8 -15951.5 -7.41565 
12695 2 8.45999 2.60953 6.48515 6.01091 -144591 -175152 3896.7 -38243.1 12117 -21755.4 -7.41639 
12696 2 9.19159 1.39493 6.48387 6.00523 -150634 -172039 -1369.43 -28199.8 -1015.58 -21072.7 -7.4159 
12697 2 8.50494 0.15476 6.48645 6.01252 -160171 -161640 814.941 -44123.2 5723.8 -20558.5 -7.416 
1161 1 10.7814 8.40787 2.92781 6.00924 -195577 -123824 -9653.72 11300.8 6260.36 -5054.88 -7.41559 
1162 1 11.4682 7.16741 2.92702 6.00933 -198317 -115307 11284.9 6042.65 9139.97 -19313.5 -7.41756 
1163 1 10.7401 5.95075 2.92389 6.012 -190034 -131799 -8295.35 29578.4 4379.58 -8677.92 -7.41555 
1164 1 11.4265 4.71024 2.92359 6.01215 -188737 -126871 9020.87 22444.4 10491.3 -20336.7 -7.41725 
1165 1 10.6973 3.49415 2.92096 6.01602 -180549 -142014 -5351.15 45130.5 654.703 -12375 -7.4157 
1166 1 11.3837 2.25374 2.92165 6.00801 -175438 -142409 5169.59 34304.5 9182.5 -20442.4 -7.41679 
1167 1 10.6534 1.03822 2.91968 6.01299 -167435 -154115 -1310.04 53767.6 -4678.9 -15595.6 -7.41603 
1350 1 13.6134 8.36218 2.93164 6.01088 -193898 -117627 15272.5 3365.28 9296.55 -18068.8 -7.41801 
1351 1 12.8856 7.14532 2.92852 6.01454 -186399 -131778 -12371.3 27977.8 1328.55 -5033.62 -7.41546 
1352 1 13.5727 5.90513 2.92745 6.0125 -186748 -126529 12767.3 20712.6 11346.1 -17293.3 -7.41773 
1353 1 12.8439 4.68875 2.92528 6.01753 -180339 -139778 -9093.98 45284.3 -1194.53 -7267.9 -7.41561 
1354 1 13.5308 3.44858 2.92524 6.00834 -177482 -137765 8605.8 35283.6 11338.5 -16596.4 -7.41727 
1355 1 12.8011 2.23268 2.92395 6.01371 -171255 -148850 -4434.58 57631.4 -4913.84 -9790.79 -7.41595 
1356 1 13.4881 0.992649 2.92514 6.0051 -165789 -151252 3111.81 43526.8 9000.18 -15221.3 -7.41672 
1539 1 15.0308 8.34049 2.93232 6.0167 -180063 -133527 -16749.2 25122 -98.2065 -4283.68 -7.41539 
1540 1 15.7186 7.10066 2.93017 6.01328 -183010 -129298 16705.2 17855.5 13274.2 -16936.4 -7.41814 
1541 1 14.9901 5.88411 2.92785 6.01872 -176013 -140571 -13301.7 42794.7 -2460.93 -4594.4 -7.41551 
1542 1 15.6776 4.64423 2.9269 6.00847 -176182 -137427 12343.5 33912.2 13822.8 -14640.7 -7.4177 
1543 1 14.9483 3.4281 2.92603 6.01442 -170853 -146984 -8246.04 57429.3 -5460.28 -5612.29 -7.41582 
1544 1 15.6356 2.18824 2.92666 6.00549 -168219 -146537 6543.71 45352.6 12199.5 -12659 -7.41713 
1545 1 14.9056 0.972455 2.92679 6.00814 -163792 -153254 -2143 65555.6 -8976.53 -7323.85 -7.41631 
1727 1 17.1758 9.53624 2.93631 6.01725 -174683 -134004 -21367.4 23689.9 601.29 -6612.97 -7.41538 
1728 1 17.8642 8.29674 2.93296 6.01349 -181258 -131867 20883.7 16312.1 16255.1 -19970.7 -7.41853 
1729 1 17.136 7.08002 2.92975 6.01967 -170391 -142176 -17844.7 40704.8 -2215.95 -5327.31 -7.41545 
1730 1 17.8241 5.84045 2.92772 6.00752 -174514 -139332 16231.7 32876 17075.1 -15874.1 -7.41808 
1731 1 17.095 4.62416 2.92656 6.01417 -167225 -147531 -12567.2 56187.1 -5322.7 -4601.68 -7.4157 
1732 1 17.7828 3.38452 2.92651 6.00379 -168336 -145393 10256.2 46412.8 15767.3 -12576.3 -7.41752 
1733 1 17.053 2.16855 2.92709 6.00814 -163719 -151164 -5978.59 67194.2 -8807.09 -4911.2 -7.41613 
1734 1 17.7406 0.928915 2.92902 6.00284 -162061 -151400 3262.23 53968.4 12377 -9958.31 -7.41691 
12879 2 10.4815 8.77881 6.47455 6.01081 -120647 -194097 10305.6 -10378.5 10067 -18662.6 -7.41744 
12880 2 11.2122 7.56387 6.47406 6.01497 -117086 -203204 -10086.7 -5127.32 5242.28 -4695.02 -7.41552 
12881 2 10.5226 6.32537 6.47596 6.01078 -127880 -187261 9484.08 -27382.6 12931.5 -19046.5 -7.4173 
12882 2 11.2538 5.11056 6.47541 6.00911 -128448 -192748 -8071.72 -20721.4 2895.67 -10003.9 -7.41559 
12883 2 10.5653 3.87147 6.478 6.0075 -138776 -178145 6915.54 -42898.6 13102.5 -18914.5 -7.41695 
12884 2 11.2966 2.65664 6.47724 6.00501 -143341 -178226 -4408.16 -33059 -962.685 -15056.5 -7.41586 
12885 2 10.6091 1.41698 6.47979 6.00814 -152653 -166766 3066 -52906.9 9976.3 -17836.5 -7.41649 
12886 2 11.3401 0.201911 6.47851 6.00444 -159819 -160489 341.758 -38233.8 -5529.59 -18749.4 -7.41629 
13068 2 13.32 8.8245 6.47046 6.01717 -118984 -197391 -14325.1 -3724.39 4102.51 -1724.57 -7.41543 
13069 2 12.63 7.58621 6.47126 6.01146 -129112 -183646 13294.6 -26884 10760.3 -17634.7 -7.41779 
13070 2 13.3605 6.37101 6.47013 6.01168 -128313 -189169 -12158.3 -19849.4 2050.1 -5102.21 -7.41549 
13071 2 12.6715 5.13221 6.47202 6.00688 -137103 -176412 10550.7 -43446.5 12703 -16062 -7.41749 
13072 2 13.4023 3.91708 6.47137 6.00727 -139718 -178867 -8224.43 -34229.8 -1075.79 -9020.41 -7.41574 
13073 2 12.7142 2.67779 6.47381 6.00526 -147889 -168136 6216.64 -56365.8 12137.7 -14323.9 -7.417 
13074 2 13.445 1.46258 6.47337 6.00441 -152749 -165791 -2860.31 -43065.2 -5114.02 -12645.8 -7.41617 
13075 2 12.7576 0.222849 6.47552 6.00765 -160045 -158614 945.447 -61719.8 9097.69 -12232.5 -7.41645 
13257 2 14.7377 8.8465 6.46739 6.01344 -133099 -178396 17340.4 -24992.7 10064.2 -18729.9 -7.41822 
13258 2 15.4676 7.6309 6.46528 6.01394 -129808 -182736 -16508.5 -17767.6 2585.43 -3192.77 -7.41542 
13259 2 14.7782 6.39227 6.46665 6.00822 -139475 -171499 14620.8 -41787.8 12493.2 -15318.8 -7.41795 
13260 2 15.5085 5.17678 6.46563 6.00925 -139044 -174893 -12427.2 -33346.2 -450.298 -5273.27 -7.41562 
13261 2 14.8199 3.93771 6.46807 6.00486 -146895 -165468 10087.5 -56331.1 13354.6 -12242.3 -7.41749 
13262 2 15.5504 2.72226 6.46805 6.00581 -148954 -166239 -6785.31 -44977.9 -4397.97 -7903.38 -7.416 
13263 2 14.8625 1.48281 6.47075 6.00467 -155451 -159536 4247.03 -65204.8 12022.9 -9570.84 -7.4169 
13264 2 15.593 0.267274 6.47119 6.00414 -159046 -156388 -147.833 -49402.1 -8702.14 -10481.6 -7.41653 
13446 2 17.5751 8.8903 6.46009 6.01442 -129659 -177560 -21059.2 -16305.1 4451.51 -4752.44 -7.41541 
13447 2 16.8853 7.65184 6.46112 6.01003 -142889 -166715 18960.6 -40181.7 13699.8 -17612.3 -7.41836 
13448 2 17.615 6.43599 6.45934 6.0102 -138704 -169573 -16796 -32421.1 1263.89 -4936.51 -7.41556 
13449 2 16.9261 5.19706 6.46183 6.00568 -148593 -160909 14424.1 -55372.1 14902.7 -12990.8 -7.41793 
13450 2 17.6562 3.98133 6.46176 6.00628 -146928 -163262 -11026 -45939 -2856.29 -5995.89 -7.41586 
13451 2 16.968 2.74205 6.46515 6.00343 -154119 -157106 8317.16 -66588.5 14436.5 -9183.55 -7.41735 
13452 2 17.6982 1.52637 6.46632 6.00354 -154762 -157239 -4113.25 -53777.3 -7690.77 -7763.43 -7.41633 
13453 2 17.0105 0.286848 6.46954 6.00425 -159409 -154061 1250.55 -70903.9 12168.5 -6445.93 -7.41671 
13635 2 18.9928 8.91075 6.45496 6.01057 -144035 -165649 23594.1 -40697.2 16669.6 -22371.4 -7.41877 
13637 2 19.0326 6.45584 6.45473 6.00602 -150073 -157680 19020.6 -56001.3 17626.7 -16676.7 -7.41834 
13639 2 19.0737 4.00068 6.45813 6.00249 -154277 -153596 12835.5 -68717 17270.5 -11691 -7.41777 
13641 2 19.1157 1.5454 6.46405 6.00119 -157521 -152311 5412.24 -76082.4 15280.9 -8020.27 -7.41712 
1916 1 20.0093 9.49369 2.93695 6.01186 -184134 -131184 25642.3 17856.3 19572.8 -25446.7 -7.41895 
1917 1 19.2816 8.27666 2.93234 6.01861 -167305 -141716 -22675.3 41353.2 -321.513 -8817.81 -7.41545 
1918 1 19.9702 7.03738 2.92924 6.00512 -175474 -140046 20491.4 34339.2 20883.4 -20133.2 -7.41847 
1919 1 19.2415 5.82087 2.92692 6.01293 -163630 -148089 -17254.7 56914.2 -3923.85 -6905.73 -7.41562 
1920 1 19.9297 4.58147 2.92606 6.00084 -168993 -145814 14169.6 49050 19920.3 -15438.9 -7.4179 
1921 1 19.2002 3.36534 2.92622 6.00675 -161551 -151029 -10382.4 69358.3 -7885.84 -5751.28 -7.41597 
1922 1 19.8881 2.12584 2.92791 5.9993 -163344 -149509 6984.64 59276.7 16570.5 -11784.4 -7.41727 
1923 1 19.1581 0.909938 2.92985 6.00265 -159894 -151865 -2588.03 76274.7 -11905.8 -6020.63 -7.41649 
2105 1 21.4268 9.47453 2.93669 6.01348 -169280 -136887 -27886.2 46091.4 2517.39 -13239.8 -7.4155 
2106 1 22.1158 8.23549 2.93287 6.00214 -181227 -136993 25548.7 39414.2 24499.8 -25924.9 -7.41893 
2107 1 21.3877 7.01859 2.92879 6.01061 -163242 -146148 -22223.5 61257.2 -1403.06 -11257.4 -7.41561 
2108 1 22.0763 5.77942 2.92711 5.99682 -172559 -144608 18593.5 54903.8 24310.4 -20508.4 -7.41831 
2109 1 21.3472 4.56302 2.92584 6.00405 -160259 -150589 -15152.1 74581.1 -5938.74 -9330.23 -7.41587 
2110 1 22.0353 3.32371 2.92701 5.99433 -165746 -148540 10985.9 67217.1 21307.2 -15848.2 -7.41766 
2111 1 21.3055 2.10762 2.92844 5.9995 -158886 -151281 -7037.07 83804.8 -10786.5 -8409.13 -7.4163 
2112 1 21.9934 0.868212 2.93223 5.99416 -160028 -150509 3061.92 73759.8 15985 -12488.6 -7.41704 
2294 1 24.2604 9.43541 2.93916 5.99927 -191584 -128715 31605.7 47990.7 27131.7 -31275.6 -7.41949 
2295 1 23.5332 8.21788 2.93334 6.00809 -167941 -139684 -27546.7 69482.7 1468.34 -15697.8 -7.41563 
2296 1 24.2222 6.97892 2.93109 5.99256 -180095 -139261 23907.4 64148.5 28203.3 -26154.9 -7.41881 
2297 1 23.4937 5.76206 2.92774 6.0007 -162274 -147199 -20163.3 83569.3 -3273.1 -14077.4 -7.41583 
2298 1 24.1822 4.52294 2.92823 5.98856 -170822 -145721 15567.4 78156.8 26144.6 -21174.1 -7.4181 
2299 1 23.4528 3.30655 2.92801 5.99523 -159315 -150078 -11830.4 94504 -8768.66 -12690.2 -7.41617 
2300 1 24.1409 2.06728 2.93144 5.98763 -163293 -148851 7155.12 87501.2 21097 -17106.4 -7.41743 
2301 1 23.4109 0.851146 2.93389 5.99218 -157937 -149915 -2892.89 100235 -14397.5 -12513.5 -7.41667 
2483 1 25.6778 9.41934 2.94076 6.00514 -177527 -128712 -33385 80400.4 3787.05 -18686.9 -7.41563 
2484 1 26.3671 8.18056 2.93842 5.98889 -191437 -129418 30159.4 75748.1 30924.2 -30690.3 -7.41941 
2485 1 25.6396 6.96302 2.93302 5.99762 -168699 -139818 -25487.6 95483.3 -599.397 -18178.5 -7.41581 
2486 1 26.3284 5.7241 2.93287 5.98302 -179473 -139056 21002.2 91594.9 30375.1 -26263.1 -7.41863 
2487 1 25.5996 4.5072 2.93034 5.99076 -162773 -146028 -16828.3 108291 -6227.29 -17259.5 -7.41609 
2488 1 26.2879 3.26811 2.933 5.98027 -169219 -144991 11815.9 103741 26307.7 -22115 -7.41789 
2489 1 25.5583 2.05164 2.93371 5.98624 -159110 -148303 -7681.09 116653 -12552.9 -16758.2 -7.41651 
2490 1 26.2464 0.812474 2.9388 5.97895 -160038 -148567 3002.06 109733 19508.1 -19001.9 -7.41725 
2672 1 28.5108 9.38477 2.94843 5.98641 -204667 -116144 37029.8 88094.7 32192.1 -33145.9 -7.42007 
2673 1 27.7845 8.16638 2.94162 5.9955 -179060 -128605 -31288.5 108564 1401.21 -20494.2 -7.41576 
2674 1 28.4736 6.92764 2.94109 5.97847 -190712 -128504 27238.7 105865 33398.6 -29806.2 -7.41925 
2675 1 27.7458 5.71004 2.93631 5.98704 -170124 -138409 -22111.8 123601 -3749.09 -20614.7 -7.41602 
2676 1 28.4343 4.47116 2.93804 5.97353 -177915 -137878 17217.7 120917 30942.3 -26276.3 -7.41843 
2677 1 27.7054 3.25417 2.93634 5.98065 -163399 -144192 -12656.2 134769 -10181.8 -20531.1 -7.41638 
2678 1 28.3936 2.01518 2.94044 5.97138 -166152 -144522 7640.67 130448 25024 -23165.1 -7.4177 
2679 1 27.6639 0.79858 2.94179 5.97693 -158108 -147188 -3088.68 140072 -17081 -20948.7 -7.41688 
13636 2 19.722 7.69455 6.45235 6.00807 -135794 -166897 -21351.6 -33323.5 3699.85 -7654.05 -7.41557 
13638 2 19.7623 5.2398 6.45426 6.00469 -144366 -160057 -15382.2 -48171.7 -491.541 -7223.85 -7.41579 
13640 2 19.8037 2.78479 6.4596 6.00157 -151564 -155661 -8356.22 -58884.2 -5748.35 -7726.02 -7.41617 
13642 2 19.8459 0.329568 6.46647 5.99966 -157781 -152509 -704.336 -62794.4 -11472.2 -9240.78 -7.41668 
13824 2 21.8296 8.95196 6.44513 6.00275 -128704 -169797 -26350 -36992.5 6004.96 -11892.2 -7.41562 
13825 2 21.1396 7.71365 6.44708 6.00459 -148497 -158931 23867.6 -59563 21523.6 -22144.3 -7.41879 
13826 2 21.8689 6.49732 6.44613 6.00007 -139003 -160160 -19956.7 -52805.8 2158.99 -10716.1 -7.4158 
13827 2 21.1798 5.25846 6.44994 6.00062 -153548 -152198 17564.8 -73266.1 20988 -16577.7 -7.4182 
13828 2 21.9096 4.04233 6.45135 5.99725 -147189 -154595 -12709.7 -65830.6 -3120.01 -10122.7 -7.41609 
13829 2 21.2213 2.80311 6.45652 5.99791 -156509 -150082 9993.82 -83044.5 18906 -12050.8 -7.41754 
13830 2 21.9513 1.58713 6.45949 5.99499 -153995 -152020 -4934.14 -73276.7 -9490.54 -10612.4 -7.4165 
13831 2 21.2634 0.347741 6.46474 5.99741 -158025 -150516 1574.51 -86778.2 15343.9 -9235.37 -7.41688 
14013 2 23.2473 8.96989 6.43979 6.00083 -142308 -165691 29141 -65973.1 25764.8 -27629.3 -7.4193 
14014 2 23.9763 7.75332 6.43856 5.99328 -129827 -165541 -25052.9 -59962.4 4326.13 -14904.3 -7.41582 
14015 2 23.2865 6.51492 6.44163 5.99695 -149608 -155318 22479.4 -80702.5 25336.1 -22425.7 -7.41868 
14016 2 24.0159 5.29854 6.44279 5.9907 -140082 -156977 -17324.9 -75013.7 -409.347 -13918.3 -7.41606 
14017 2 23.3271 4.05963 6.44778 5.99354 -153951 -150106 14754.5 -92607.9 23180.5 -17660.2 -7.41799 
14018 2 24.057 2.84345 6.45089 5.98837 -148890 -152436 -9298.75 -85889.2 -6818.05 -13580.4 -7.4164 
14019 2 23.3688 1.60425 6.45692 5.99171 -156476 -149063 6155.13 -99581.4 19410.1 -14168.3 -7.41729 
14020 2 24.0989 0.388161 6.46059 5.98718 -156213 -150359 -1131.61 -90266.8 -14156.7 -14533.5 -7.41686 
14202 2 26.0849 9.0072 6.43275 5.98549 -117513 -176031 -30874.1 -68844.8 5470.93 -18317.7 -7.41581 
14203 2 25.394 7.76947 6.43458 5.99133 -141575 -163422 27735.5 -90186.7 29499 -27613.2 -7.41923 
14204 2 26.1232 6.55287 6.43553 5.98279 -130131 -163936 -22487.4 -85846.6 1722.97 -17740.7 -7.41604 
14205 2 25.4335 5.31446 6.43943 5.9877 -148433 -154116 19667.3 -104296 27703.3 -23415.2 -7.41849 
14206 2 26.1632 4.09805 6.44235 5.9804 -141147 -156008 -13957.7 -99976.1 -4066.66 -17171.9 -7.41634 
14207 2 25.4746 2.85918 6.44802 5.98506 -153320 -149852 10918.8 -114478 23985.4 -19805.5 -7.41775 
14208 2 26.2046 1.64292 6.45188 5.97884 -150958 -151430 -5503.72 -108399 -11540.4 -17388.6 -7.41673 
14209 2 25.5164 0.4038 6.45808 5.98439 -156327 -148578 1686.72 -118842 18733.3 -17494 -7.41707 
14391 2 27.5026 9.02163 6.42987 5.98438 -130266 -175328 33472.4 -100358 32613.1 -31046.9 -7.41986 
14392 2 28.2316 7.8048 6.43079 5.97488 -117980 -174922 -28325 -97166 2881.1 -20477.6 -7.41597 
14393 2 27.5409 6.56708 6.43306 5.98061 -139843 -162342 24877.4 -116822 31743 -27967.3 -7.41906 
14394 2 28.2704 5.35045 6.43565 5.97204 -131164 -163426 -19139.8 -114375 -1807.68 -20294.1 -7.41627 
14395 2 27.5809 4.1121 6.43996 5.97749 -147262 -153963 15833.4 -130307 28588.7 -24874.8 -7.41826 
14396 2 28.3108 2.89561 6.44361 5.97004 -143559 -155351 -10189 -127033 -8716.75 -20254.8 -7.41663 
14397 2 27.6221 1.65684 6.44927 5.97601 -153093 -149439 6463.69 -138666 23491 -22384.9 -7.41751 
14398 2 28.3521 0.440392 6.45257 5.96964 -154958 -149554 -1388.65 -132823 -16996.5 -21084.5 -7.4171 
2861 1 29.9281 9.37238 2.95253 5.99451 -191447 -115346 -37588.2 121055 2408.06 -20876.8 -7.41566 
2862 1 30.6176 8.13386 2.952 5.97547 -202987 -115717 33958.9 119347 34970.5 -31241.3 -7.41992 
2863 1 29.8909 6.91543 2.94561 5.98461 -180323 -128002 -27846.8 138453 -1826.17 -22041 -7.41593 
2864 1 30.5799 5.67677 2.9465 5.96815 -188492 -127669 23275 137454 34443.5 -28682.6 -7.41905 
2865 1 29.8517 4.45909 2.94246 5.97625 -170698 -137190 -17905.3 152990 -7743.14 -22742.8 -7.41626 
2866 1 30.5402 3.22032 2.94527 5.96421 -174697 -137581 12887.5 150867 30071.3 -26107.9 -7.41822 
2867 1 29.8111 2.00321 2.94424 5.97035 -162503 -143325 -8051.98 161840 -14780.6 -23399.6 -7.4167 
2868 1 30.4994 0.76443 2.94865 5.96163 -161149 -145623 3157.34 157096 22695.7 -24015.4 -7.41751 
3050 1 32.7603 9.34279 2.96421 5.97394 -214553 -102417 40808.8 130725 35193 -30775 -7.4206 
3051 1 32.0349 8.12347 2.95708 5.98353 -191595 -116275 -34058.8 151203 -682.032 -21682.1 -7.41578 
3052 1 32.7243 6.88507 2.95739 5.96463 -199449 -116024 29732.3 151531 36556.2 -29123.5 -7.4197 
3053 1 31.9972 5.6666 2.95161 5.97349 -180146 -128073 -23573.5 169048 -5615.94 -23090.5 -7.41611 
3054 1 32.6861 4.42808 2.95312 5.95828 -184390 -128245 18669.8 168889 34128.3 -27313 -7.41879 
3055 1 31.9576 3.21033 2.94978 5.9654 -169593 -137135 -13273.6 181970 -12199.1 -24209.2 -7.41653 
3056 1 32.6463 1.97177 2.95263 5.95546 -169435 -139073 8200.12 179594 28067.5 -25611 -7.41798 
3057 1 31.9169 0.75453 2.95204 5.96016 -159601 -144219 -3253.58 187702 -19596.2 -25341.6 -7.41706 
3239 1 34.1775 9.3341 2.9693 5.98245 -202239 -104478 -40576.3 160838 -293.545 -20128.4 -7.4156 
3240 1 34.8675 8.09598 2.96934 5.96292 -209674 -104344 36332.8 162155 37319.7 -27984.9 -7.42035 
3241 1 34.1415 6.87669 2.96265 5.97233 -190053 -118084 -29673.6 181484 -4021.98 -21937.3 -7.41594 
3242 1 34.8309 5.63845 2.96306 5.95441 -194101 -117842 24813.9 183022 36911.6 -26845.3 -7.4194 
3243 1 34.1034 4.41998 2.95795 5.96241 -178069 -129458 -18854.6 198592 -9666.68 -23420.1 -7.41633 
3244 1 34.7924 3.18168 2.95922 5.94927 -178541 -130666 13694.3 198423 32633.6 -25685.9 -7.4185 
3245 1 34.0637 1.96385 2.95645 5.95492 -166389 -138631 -8434.32 208862 -16778.4 -24733.1 -7.41683 
3246 1 34.7527 0.725608 2.95849 5.94694 -162848 -142652 3243.56 205268 25267 -24679 -7.41771 
3428 1 37.0094 9.30931 2.98109 5.96279 -218063 -93756.7 42875.6 169030 36959.6 -25888.5 -7.42098 
3429 1 36.2847 8.08921 2.97424 5.97247 -199300 -108347 -36059.3 189834 -3034.66 -19897.3 -7.41574 
3430 1 36.9746 6.85128 2.97388 5.95256 -203123 -107782 31141.5 192677 38385.5 -25176.1 -7.42002 
3431 1 36.2482 5.63205 2.96773 5.96124 -186717 -121125 -24793.6 210421 -7451.18 -21520.3 -7.41612 
3432 1 36.9377 4.39404 2.96762 5.94519 -187571 -121476 19532.6 212233 36093.3 -24477.3 -7.41905 
3433 1 36.2098 3.17557 2.96313 5.95181 -174204 -132004 -13893.5 225329 -13791.8 -22930.8 -7.41659 
3434 1 36.8991 1.93756 2.96356 5.94157 -171474 -134711 8511.85 224314 30183.7 -23830.3 -7.41816 
3435 1 36.1701 0.719663 2.96118 5.94532 -161662 -141586 -3424.54 231854 -21264.8 -24261.5 -7.41718 
14580 2 30.3414 9.05407 6.42898 5.96806 -104950 -187752 -34686.7 -107694 3053.07 -21630.7 -7.41583 
14581 2 29.6494 7.81716 6.42957 5.97304 -128896 -173332 30520.3 -128465 34634 -30593.6 -7.4197 
14582 2 30.3786 6.60029 6.43187 5.96449 -119902 -173690 -24907.2 -127582 -371.507 -22172.6 -7.41615 
14583 2 29.688 5.3626 6.43429 5.96947 -138783 -161235 21024.4 -145279 32587.1 -28384.4 -7.41883 
14584 2 30.4178 4.14589 6.4375 5.96182 -134216 -162343 -15341.9 -144362 -6190.74 -22345.7 -7.41651 
14585 2 29.7283 2.90762 6.44164 5.96729 -147524 -153226 11395.3 -157782 28160.4 -26203.7 -7.41801 
14586 2 30.4583 1.69097 6.44477 5.9606 -147901 -153393 -6101.44 -154865 -14088.3 -22786.6 -7.41695 
14587 2 29.7696 0.452336 6.4497 5.9674 -155113 -147886 1701.21 -163695 21933.8 -24480.2 -7.41728 
14769 2 31.7593 9.06456 6.42897 5.96592 -117044 -185091 36578.9 -137970 36074.7 -31279.6 -7.42036 
14770 2 32.4882 7.84743 6.4311 5.95851 -108564 -185043 -31110.9 -138476 201.466 -22555.2 -7.41596 
14771 2 31.7964 6.61051 6.43169 5.9618 -128919 -170518 26612.3 -157808 35468.4 -29977 -7.41946 
14772 2 32.5258 5.39354 6.4344 5.95494 -124226 -171368 -20974 -158897 -4278.78 -23201.3 -7.41634 
14773 2 31.8354 4.15591 6.4366 5.95886 -139819 -159297 16583.5 -174443 32215.3 -28357.9 -7.41856 
14774 2 32.5652 2.93902 6.4393 5.95273 -139577 -159657 -11208.4 -174244 -11230.4 -23630.5 -7.41677 
14775 2 31.8759 1.70088 6.4427 5.95806 -149929 -151002 6644.33 -185145 26643.3 -26729.3 -7.41774 
14776 2 32.6057 0.483921 6.44431 5.95272 -154617 -149144 -1637.32 -181618 -19762.3 -24346.3 -7.4173 
14958 2 34.5991 9.09197 6.4327 5.95444 -97900.6 -195576 -37507.2 -146527 64.2337 -21635.4 -7.41573 
14959 2 33.906 7.85584 6.43191 5.95521 -118901 -180165 32590 -166987 37020.7 -29859.8 -7.42012 
14960 2 34.6351 6.63858 6.43417 5.94993 -114346 -180913 -26957.9 -169771 -3091.37 -22772.4 -7.41612 
14961 2 33.9435 5.40166 6.43457 5.95142 -131331 -166643 22132 -187354 35266.4 -28810.9 -7.41917 
14962 2 34.6731 4.18451 6.43674 5.94664 -130549 -167266 -16681.6 -189518 -8746.39 -23422.2 -7.41655 
14963 2 33.9828 2.94695 6.43833 5.94955 -143301 -155911 11825.2 -202717 30806 -27467.8 -7.41826 
14964 2 34.7126 1.72978 6.43968 5.94534 -146840 -154819 -6734.4 -202172 -16618.9 -23951.6 -7.41706 
14965 2 34.0232 0.491776 6.44189 5.95058 -154962 -147024 1701.5 -210445 24263.8 -26063 -7.41747 
15147 2 36.017 9.09877 6.43406 5.95023 -109448 -188611 38810.2 -172555 37321 -28525.3 -7.42075 
15148 2 36.7456 7.88118 6.436 5.94698 -105229 -189363 -33122.8 -176666 -2583.03 -21321.1 -7.41587 
15149 2 36.0529 6.64498 6.43509 5.94553 -122804 -174071 28032.8 -195721 37144.9 -27912.5 -7.41979 
15150 2 36.7821 5.42754 6.43675 5.94261 -121954 -175181 -22422.3 -200003 -6825.03 -22247.5 -7.4163 
15151 2 36.0908 4.19061 6.43675 5.94253 -135844 -161602 17327.4 -215508 34135.4 -26880.7 -7.41882 
15152 2 36.8203 2.9732 6.43772 5.94003 -138644 -161383 -12079.3 -217679 -13590.1 -22813.9 -7.41679 
15153 2 36.1301 1.73572 6.43839 5.9422 -148862 -151090 6880.55 -228380 28515.7 -25601.1 -7.41793 
15154 2 36.8596 0.518179 6.43799 5.94003 -155246 -148009 -1911.59 -226360 -21997.3 -23286.1 -7.4174 
15337 2 38.1635 7.88612 6.43722 5.94152 -115012 -180481 34160.7 -199811 37883.1 -26142.2 -7.42041 
15339 2 38.1998 5.43207 6.43734 5.93733 -128603 -167204 23136.3 -223005 36477.4 -25364.1 -7.41941 
15341 2 38.2379 2.97747 6.43734 5.93555 -142209 -155627 12337.9 -240679 32151.8 -24242.8 -7.41844 
15343 2 38.2771 0.522344 6.43643 5.93703 -155759 -145445 1793.03 -249678 25521.7 -22974.1 -7.41759 
3617 1 38.4266 9.3039 2.98525 5.97178 -206707 -99599.2 -42511.5 194001 -2619.57 -17512.3 -7.41552 
3618 1 39.1173 8.06632 2.98445 5.95236 -210579 -98785 37500 197842 38690.3 -22871.9 -7.42062 
3619 1 38.3919 6.84635 2.97796 5.96152 -194647 -113121 -30976.6 217392 -5735.53 -19078.5 -7.4159 
3620 1 39.0819 5.60865 2.9768 5.94323 -195676 -112648 25588.5 220866 38342.5 -22448.1 -7.41962 
3621 1 38.355 4.3895 2.97122 5.95069 -182083 -125147 -19622.8 236538 -10949 -20443.8 -7.41634 
3622 1 39.0447 3.15177 2.97023 5.93744 -180125 -126407 14097 237869 34216.1 -22102.1 -7.41865 
3623 1 38.3165 1.9333 2.96627 5.94221 -168986 -135508 -8748.58 248155 -17932.1 -21704.9 -7.41689 
3624 1 39.0061 0.695647 2.96567 5.93523 -164214 -140149 3231.43 245399 27031.5 -21802.3 -7.41779 
3806 1 41.2588 9.28325 2.99395 5.95354 -216008 -91623.8 43756.7 199111 38054.8 -20375.6 -7.42119 
3807 1 40.5345 8.06259 2.98767 5.96288 -201080 -106060 -37242.7 219769 -4600.22 -16528.3 -7.41568 
3808 1 41.2252 6.82524 2.98583 5.94299 -202373 -104911 31741 224564 39429.4 -20059.1 -7.42019 
3809 1 40.4992 5.60542 2.97977 5.95111 -189045 -118512 -25551.5 242303 -8515.48 -17742.7 -7.4161 
3810 1 41.1894 4.36798 2.9777 5.93533 -187858 -118457 19906.6 245636 37204.3 -19883.7 -7.41916 
3811 1 40.462 3.14892 2.97266 5.94115 -176440 -129587 -14264.3 258728 -14591.2 -18849.5 -7.4166 
3812 1 41.152 1.91149 2.97081 5.93146 -172741 -132262 8639.34 258693 31450.5 -19787.8 -7.41822 
3813 1 40.4236 0.693009 2.9673 5.93406 -163413 -139610 -3429.37 265816 -22062.2 -19971.7 -7.41724 
3995 1 42.6759 9.28049 2.99616 5.96342 -205443 -100316 -43435.8 218379 -4022.75 -14121.1 -7.41546 
3996 1 43.3674 8.0435 2.99398 5.9442 -207213 -98740.2 37872 224103 39501.6 -17637.7 -7.42074 
3997 1 42.6424 6.82305 2.98796 5.95269 -194664 -112764 -31577.8 243339 -6656.8 -15137.9 -7.41586 
3998 1 43.3333 5.58593 2.98515 5.93499 -194093 -111537 25844.5 248386 39107.5 -17512.1 -7.4197 