ITEM: TIMESTEP
0
ITEM: NUMBER OF ATOMS
23816
ITEM: BOX BOUNDS pp pp pp
0.0000000000000000e+00 1.3400400500000001e+02
0.0000000000000000e+00 2.3210174599999999e+02
0.0000000000000000e+00 1.5000000000000000e+01
ITEM: ATOMS id type x y z c_csym c_2[1] c_2[2] c_2[3] c_2[4] c_2[5] c_2[6] c_3 
215 1 0.788 8.589 3 6.02415 -144898 -125558 -116156 -25749.9 32884.6 -2802.54 -7.41357 
216 1 0.068 7.368 3 6.0234 -136702 -156291 -117205 -11462.9 32558.8 -620.602 -7.41369 
217 1 0.765 6.133 3 6.0237 -149142 -144994 -120532 -13864.7 26137 -3222.72 -7.41331 
218 1 0.045 4.912 3 6.02472 -130551 -136513 -121761 -26846.8 23050.5 -383.555 -7.41347 
219 1 0.743 3.677 3 6.02415 -139551 -129120 -123414 -25763.3 17094.5 -3375.21 -7.41317 
220 1 0.023 2.456 3 6.0234 -138783 -152278 -124442 -11568.4 12138.8 -141.778 -7.41329 
221 1 0.72 1.221 3 6.02246 -143602 -149266 -125340 -13889.4 5797.38 -3505.71 -7.41305 
222 1 0 0 3 6.02651 -135091 -143595 -125419 -21777.6 0.409409 -37.1431 -7.41308 
405 1 2.206 8.576 3 6.02466 -138487 -157746 -114224 26823.9 35952.1 -8196 -7.41366 
406 1 2.903 7.342 3 6.02466 -149954 -145494 -117122 22759 29147.6 -12611.1 -7.41349 
407 1 2.183 6.12 3 6.0242 -132151 -137950 -119293 14764.7 27596.8 -9076.57 -7.4134 
408 1 2.881 4.886 3 6.02421 -140245 -129436 -120850 10669.7 21396.9 -13369 -7.41332 
409 1 2.161 3.664 3 6.02466 -140196 -153807 -122883 26529 17526 -9624.52 -7.41318 
410 1 2.858 2.43 3 6.02466 -144368 -149773 -123272 22344.4 11417.2 -13800 -7.41312 
411 1 2.138 1.208 3 6.02423 -136565 -143278 -124506 19266.4 5665.72 -10074.3 -7.4131 
594 1 5.041 8.55 3 6.02341 -149422 -144870 -112633 -14393 30554.7 -20502.2 -7.41396 
595 1 4.321 7.329 3 6.02415 -132350 -138309 -115666 -20893.8 30862.8 -16275.5 -7.4136 
596 1 5.019 6.094 3 6.02468 -139854 -128847 -116512 -30029.5 24676.9 -21956.2 -7.41376 
597 1 4.299 4.873 3 6.02369 -140239 -154118 -119657 -9237.18 21788.5 -17864.6 -7.41335 
598 1 4.996 3.638 3 6.02341 -144144 -148433 -119872 -15028.7 16025 -22917.9 -7.41356 
599 1 4.276 2.417 3 6.02417 -134156 -135123 -122108 -21402.9 11029.3 -19071 -7.41321 
600 1 4.974 1.182 3 6.02405 -136689 -141502 -121541 -35611 6036.92 -23027.8 -7.4135 
783 1 6.459 8.537 3 6.02392 -121241 -126983 -111420 32973.7 32140.3 -21034.7 -7.41365 
784 1 7.157 7.303 3 6.02637 -140347 -133611 -110854 6658.98 26339.5 -28776.6 -7.41366 
785 1 6.437 6.081 3 6.0257 -130246 -142436 -115649 17905.2 24769.4 -23740.4 -7.4134 
786 1 7.135 4.847 3 6.02367 -178236 -116307 -114507 22463.1 19540.8 -30391.3 -7.41383 
787 1 6.414 3.625 3 6.02392 -123775 -122835 -118488 31315.9 15008.7 -25867 -7.41325 
788 1 7.112 2.391 3 6.02705 -134860 -137831 -117113 5673.58 10902.5 -31040.5 -7.41328 
789 1 6.392 1.169 3 6.02382 -134588 -148009 -119813 21902.3 4520.72 -27258.8 -7.4132 
972 1 9.295 8.511 3 6.02369 -151701 -146355 -104225 -18393.6 26571.3 -33236.9 -7.41421 
973 1 8.575 7.29 3 6.02587 -129926 -141570 -110895 -18613.4 25876.8 -27236.4 -7.41386 
974 1 9.273 6.055 3 6.02413 -132562 -116222 -108022 -17706.2 21874.2 -35468.1 -7.41383 
975 1 8.552 4.834 3 6.02324 -171319 -122668 -113858 -3058.47 17913.9 -30318.1 -7.41387 
976 1 9.25 3.599 3 6.02629 -137599 -135921 -111557 -32119.3 14755.9 -36724.6 -7.41362 
977 1 8.53 2.378 3 6.02705 -131832 -140839 -115470 -19822.4 8348.68 -32599.8 -7.41336 
978 1 9.228 1.143 3 6.02391 -129478 -128696 -113507 -23735.6 6381.97 -36908.3 -7.41354 
11937 2 0.63 8.602 6.4 6.02572 -129350 -143518 -114485 -11278.2 36154.1 -1921.7 -7.41346 
11938 2 0.653 6.146 6.4 6.02391 -122399 -123730 -119674 -25039.1 27783.1 -2569.37 -7.41318 
11939 2 0.675 3.69 6.4 6.02572 -131034 -139530 -123282 -11245.4 17715.2 -3048.16 -7.41297 
11940 2 0.698 1.234 6.4 6.02331 -125017 -120558 -124959 -25604.4 5852.38 -3432.44 -7.41279 
11941 2 0 0 6.4 6.02712 -134765 -144263 -125411 -7585.96 4.05447 30.889 -7.41309 
12123 2 2.048 8.615 6.4 6.02468 -142630 -126177 -115468 26028.9 32982.2 -9537.79 -7.41382 
12124 2 2.768 7.394 6.4 6.02369 -139228 -155951 -116628 15955.1 31350.6 -10250.7 -7.41352 
12125 2 2.071 6.159 6.4 6.0234 -146838 -145684 -119835 10480 26255.6 -9971.71 -7.41356 
12126 2 2.791 4.938 6.4 6.02415 -133073 -136285 -120866 27771.6 22272.9 -11776 -7.41331 
12127 2 2.093 3.703 6.4 6.02468 -137299 -129741 -122659 25601.7 17212.1 -10287.5 -7.41342 
12128 2 2.813 2.482 6.4 6.02369 -141354 -152023 -123464 15745.7 11461.6 -12947.6 -7.41314 
12129 2 2.116 1.247 6.4 6.02217 -141483 -150052 -124585 10083.1 5935.83 -10285.2 -7.41326 
12130 2 2.836 0.026 6.4 6.02417 -137753 -141520 -124298 22661.7 -114.284 -13498.8 -7.41314 
12312 2 4.884 8.641 6.4 6.02536 -128969 -140947 -112486 -6113.47 32956.4 -16319.6 -7.41399 
12313 2 4.186 7.407 6.4 6.0242 -143093 -127891 -115664 -14785.2 29480.3 -18631.6 -7.41361 
12314 2 4.906 6.185 6.4 6.02327 -136644 -157012 -117114 -21597.9 25550.2 -19030 -7.41371 
12315 2 4.209 4.951 6.4 6.02517 -147442 -147513 -119330 -27079.3 21751.5 -19393.9 -7.41337 
12316 2 4.929 3.729 6.4 6.02536 -130775 -137227 -120244 -6442.05 15763.8 -21122.6 -7.41356 
12317 2 4.231 2.495 6.4 6.0242 -137912 -131529 -121822 -15553.6 11804.1 -19808 -7.41327 
12318 2 4.951 1.273 6.4 6.02305 -138881 -153865 -121786 -22149 5239.12 -22546.4 -7.41342 
12319 2 4.254 0.039 6.4 6.0258 -144548 -160208 -122846 -23003.1 541.192 -19548.3 -7.4132 
12501 2 6.302 8.654 6.4 6.02629 -143005 -130669 -110261 22779.6 31018.8 -25500.4 -7.41369 
12502 2 7.022 7.433 6.4 6.02705 -129543 -143471 -112743 33527.5 26949.3 -23740.6 -7.41354 
12503 2 6.324 6.198 6.4 6.02413 -132800 -114493 -114095 8470.3 25206.9 -26954.7 -7.41349 
12504 2 7.045 4.977 6.4 6.02324 -170983 -122536 -116240 16987.7 18909.6 -26977.1 -7.41374 
12505 2 6.347 3.742 6.4 6.02629 -137800 -134222 -117426 21776.7 16595.6 -27856.1 -7.41329 
12506 2 7.067 2.521 6.4 6.02705 -131831 -139965 -118152 32944.2 9307.02 -29293.2 -7.41325 
12507 2 6.369 1.286 6.4 6.02401 -127487 -118779 -119140 7470.3 6652.76 -27969.8 -7.41318 
12508 2 7.09 0.065 6.4 6.02325 -175765 -128112 -118511 11395.8 -885.72 -30663.5 -7.41364 
12690 2 9.138 8.68 6.4 6.02392 -121445 -127277 -108033 -17311.2 26618.4 -26103.8 -7.41383 
12691 2 8.44 7.446 6.4 6.02705 -140687 -133999 -107887 -15399.4 27033.8 -32172.6 -7.41382 
12692 2 9.16 6.224 6.4 6.0257 -129903 -143557 -111512 -3704.03 20333.2 -30314.1 -7.41363 
12693 2 8.462 4.99 6.4 6.02367 -178622 -116673 -111616 -32264.9 20322.7 -33620 -7.414 
12694 2 9.183 3.768 6.4 6.02392 -123509 -124159 -113554 -17849.9 12044.6 -33712.1 -7.41352 
12695 2 8.485 2.534 6.4 6.02705 -135636 -137552 -114185 -16659.5 11744 -34216.1 -7.41347 
12696 2 9.205 1.312 6.4 6.02445 -132319 -140942 -114379 -4572.22 3117.2 -35900.9 -7.41344 
12697 2 8.507 0.078 6.4 6.02391 -175768 -129146 -115695 -28700.7 1781.55 -33792.5 -7.4138 
1161 1 10.713 8.498 3 6.0242 -131341 -141128 -106375 22166.8 25305.1 -27909.8 -7.41412 
1162 1 11.411 7.264 3 6.0242 -142865 -131603 -100781 6039.4 22553.4 -38190.1 -7.41443 
1163 1 10.691 6.042 3 6.02327 -136920 -158187 -109371 35519.2 19041.3 -31790.1 -7.41414 
1164 1 11.388 4.808 3 6.02517 -147346 -151183 -104388 17364.1 17402.3 -40040.6 -7.41419 
1165 1 10.668 3.586 3 6.02536 -131240 -138821 -110907 19681.6 10804.8 -35015.6 -7.41408 
1166 1 11.366 2.352 3 6.02416 -136888 -135284 -107359 4958.47 10511.7 -40738.1 -7.41416 
1167 1 10.646 1.13 3 6.01996 -141504 -164396 -111399 39317.5 1935.06 -37070.8 -7.41405 
1350 1 13.549 8.472 3 6.02468 -142359 -131541 -92973.1 -34376.9 22128.2 -38574.4 -7.41506 
1351 1 12.829 7.251 3 6.02369 -139272 -157627 -104526 -2543.18 18529.3 -30931.6 -7.41418 
1352 1 13.526 6.016 3 6.02341 -146811 -150998 -97026.6 -19627.3 18712.2 -40855 -7.41481 
1353 1 12.806 4.795 3 6.02415 -133449 -138737 -106179 -14792.5 12022.9 -34826.5 -7.41412 
1354 1 13.504 3.56 3 6.02217 -135996 -137344 -100421 -35847.4 13668 -41989.4 -7.41452 
1355 1 12.784 2.339 3 6.02587 -150309 -189887 -106456 15621.7 4306.24 -37692.4 -7.41412 
1356 1 13.481 1.105 3 6.01816 -143277 -164186 -103309 12464.1 7027.6 -41978.9 -7.41449 
1539 1 14.967 8.459 3 6.0257 -129106 -145067 -100707 23639.9 16788.7 -27715.5 -7.41423 
1540 1 15.665 7.225 3 6.02367 -180806 -119042 -88936.8 18171.3 18867.2 -39682.9 -7.41524 
1541 1 14.944 6.003 3 6.02392 -122652 -126398 -102079 37218.1 11620.6 -32155.3 -7.41416 
1542 1 15.642 4.769 3 6.02705 -137860 -139716 -92813.8 1330.18 15511.3 -41155.4 -7.41465 
1543 1 14.922 3.547 3 6.02044 -130218 -145668 -102183 23229.2 5518.33 -35635.1 -7.41402 
1544 1 15.62 2.313 3 6.02303 -184155 -155438 -96113.4 -2023.48 10516 -41548.4 -7.41502 
1545 1 14.899 1.092 3 6.02276 -128038 -132277 -101390 2892.46 -1627.22 -38215.9 -7.41422 
1727 1 17.105 9.668 3 6.02705 -128381 -144830 -97445.7 -14482.4 14001.1 -23177.3 -7.41438 
1728 1 17.803 8.433 3 6.02413 -134941 -118771 -81088 -21772 18547.9 -36953.5 -7.41531 
1729 1 17.082 7.212 3 6.02324 -170016 -125053 -98140.2 1824.34 10312.2 -27736.2 -7.41473 
1730 1 17.78 5.977 3 6.02629 -140186 -138239 -85374.3 -36143.4 16539.9 -38442.4 -7.41505 
1731 1 17.06 4.756 3 6.02705 -130905 -143520 -98161.5 -14732.8 5362.38 -31621.8 -7.41434 
1732 1 17.758 3.521 3 6.02217 -128748 -124227 -89032.1 -23106.2 13157.4 -39096.7 -7.41475 
1733 1 17.037 2.3 3 6.02304 -180703 -157686 -96965.4 19994.5 -349.303 -34686.6 -7.41497 
1734 1 17.735 1.066 3 6.02202 -136712 -150847 -92699.8 -3909.59 8541.31 -38644.3 -7.41468 
12879 2 10.556 8.693 6.4 6.02341 -149717 -147311 -100741 6080.92 27388.3 -35138.7 -7.41461 
12880 2 11.276 7.472 6.4 6.02415 -131879 -140152 -106862 34863.1 20081 -30800.9 -7.41408 
12881 2 10.578 6.237 6.4 6.02468 -140297 -131272 -104387 20790.8 22739.2 -37120.1 -7.41442 
12882 2 11.298 5.016 6.4 6.02369 -139982 -156520 -109105 22684.4 13500.7 -35057.7 -7.41394 
12883 2 10.601 3.781 6.4 6.02341 -144697 -150792 -107919 4734.6 15715.1 -38155.1 -7.41422 
12884 2 11.321 2.56 6.4 6.02415 -134437 -137357 -109864 34142.6 5748.04 -38211 -7.41392 
12885 2 10.623 1.325 6.4 6.02404 -135097 -135358 -109937 19436.7 7417.21 -38261 -7.41409 
12886 2 11.343 0.104 6.4 6.02493 -144951 -162702 -109339 16872.2 -2574.54 -40114.6 -7.41394 
13068 2 13.391 8.719 6.4 6.02327 -135345 -160280 -102320 -15276.1 18562.3 -28968.3 -7.41452 
13069 2 12.694 7.485 6.4 6.02517 -150386 -149725 -97035.4 -31527.9 23613.7 -38141.9 -7.4146 
13070 2 13.414 6.263 6.4 6.02536 -129427 -141343 -104343 -70.1817 13382.9 -33936.3 -7.41444 
13071 2 12.716 5.029 6.4 6.0242 -140891 -133593 -100616 -20309.9 18568.6 -39651.7 -7.41443 
13072 2 13.436 3.807 6.4 6.02327 -137736 -158037 -105084 -15781.5 7203.12 -37873.6 -7.41437 
13073 2 12.739 2.573 6.4 6.02517 -145505 -153096 -103683 -32970.1 11787 -40081.9 -7.41424 
13074 2 13.459 1.351 6.4 6.02475 -132137 -139426 -104886 -974.606 -13.23 -40556.6 -7.41438 
13075 2 12.761 0.117 6.4 6.02418 -138087 -145731 -105722 -16892.6 3853.84 -39507.2 -7.41418 
13257 2 14.809 8.732 6.4 6.02413 -135558 -117023 -88870.5 4250.82 23232 -37355.6 -7.41488 
13258 2 15.53 7.511 6.4 6.02324 -169539 -125673 -100534 22451 12214.3 -30432.1 -7.41461 
13259 2 14.832 6.276 6.4 6.02629 -140762 -136602 -92793.9 17411.3 19929.1 -39086.9 -7.41465 
13260 2 15.552 5.055 6.4 6.02705 -130340 -143984 -101029 38551.3 7232.21 -34932.6 -7.41419 
13261 2 14.854 3.82 6.4 6.02413 -130752 -120281 -96253.8 2863.14 15029.3 -39865.1 -7.41448 
13262 2 15.575 2.599 6.4 6.02324 -172437 -123751 -100521 21854.9 1431.36 -38418.5 -7.41461 
13263 2 14.877 1.364 6.4 6.02505 -135696 -140302 -99410.9 16034.4 8505.96 -39592 -7.41425 
13264 2 15.597 0.143 6.4 6.02768 -135507 -150869 -98790.6 32827.8 -4747.29 -40649.2 -7.41433 
13446 2 17.645 8.758 6.4 6.0257 -128258 -145280 -97278.3 610.086 10144.6 -25442.6 -7.41441 
13447 2 16.947 7.524 6.4 6.02367 -181450 -119012 -85106.4 -36344 20254.6 -36762 -7.41546 
13448 2 17.668 6.302 6.4 6.02392 -121916 -126910 -97380.4 -13213.8 6276.59 -30266.2 -7.41441 
13449 2 16.97 5.068 6.4 6.02705 -138556 -139636 -88842.5 -20740.7 16986.7 -37629.3 -7.41487 
13450 2 17.69 3.846 6.4 6.0257 -131022 -143942 -96759.6 354.408 1703.22 -34105.4 -7.41444 
13451 2 16.992 2.612 6.4 6.02367 -176725 -121996 -92465.1 -37669.2 12151.7 -37716.1 -7.41506 
13452 2 17.713 1.39 6.4 6.02332 -124910 -125819 -95137.9 -13875.5 -3508.14 -37039.3 -7.41451 
13453 2 17.015 0.156 6.4 6.0283 -135789 -151277 -95093.9 -17171.1 6441.72 -36724.7 -7.41454 
13635 2 19.063 8.771 6.4 6.02468 -144435 -133805 -77148.6 15037.7 19837.6 -33552.3 -7.41568 
13637 2 19.086 6.315 6.4 6.02341 -147507 -152538 -81350.4 981.2 17985.3 -34287.7 -7.41567 
13639 2 19.108 3.859 6.4 6.02468 -138242 -136120 -85067.8 15742.2 14763.9 -34425.6 -7.41549 
13641 2 19.131 1.403 6.4 6.02217 -142511 -155715 -89076.8 -104.596 10306.3 -33669 -7.41522 
1916 1 19.941 9.642 3 6.02421 -144982 -133755 -73546.9 2129.28 17659.5 -33546.5 -7.41592 
1917 1 19.221 8.42 3 6.02327 -135337 -158984 -95935.6 39114.3 8120.09 -22143.4 -7.41487 
1918 1 19.918 7.186 3 6.02517 -149759 -153054 -77658 13605.9 16892.8 -34749.7 -7.41566 
1919 1 19.198 5.964 3 6.02536 -129757 -140668 -95370.6 23702.7 4244.77 -26186.2 -7.41493 
1920 1 19.896 4.73 3 6.02421 -140400 -136568 -81877.3 1221.11 14779.6 -35390.1 -7.41546 
1921 1 19.176 3.508 3 6.01937 -136871 -160442 -94157 39038.2 -268.003 -29408.5 -7.41485 
1922 1 19.873 2.274 3 6.02587 -153274 -189016 -85752.1 -6343.48 11507.1 -35131.3 -7.41537 
1923 1 19.153 1.053 3 6.02276 -135506 -147466 -91849.7 -10308.3 -5394.41 -32089.9 -7.41514 
2105 1 21.359 9.629 3 6.02369 -137381 -156738 -94245.9 -270.793 5609.31 -16660.2 -7.41473 
2106 1 22.056 8.394 3 6.02341 -148993 -152315 -70720 -23127.1 17093 -30869.3 -7.41626 
2107 1 21.336 7.173 3 6.02415 -131696 -138901 -93272.4 -12028.7 2665.3 -20282.4 -7.41482 
2108 1 22.034 5.938 3 6.02468 -139800 -135798 -75053.4 -38827.2 16030.9 -31110.6 -7.41603 
2109 1 21.314 4.717 3 6.02369 -140286 -156261 -91565.7 -168.558 -1004.59 -23562.2 -7.41489 
2110 1 22.011 3.482 3 6.01853 -142931 -157149 -79447.1 -24105.2 13783.7 -30861.7 -7.41565 
2111 1 21.291 2.261 3 6.02419 -142742 -172323 -89059.1 6556.17 -5158.62 -26335.7 -7.41522 
2112 1 21.989 1.027 3 6.02364 -136377 -147763 -83629.3 -6180.7 10747.4 -29940.2 -7.41559 
2294 1 24.195 9.603 3 6.02367 -182730 -119836 -63775.5 14936.5 17239.4 -27476.5 -7.41662 
2295 1 23.474 8.381 3 6.02392 -120593 -124893 -92556.6 38652.1 781.301 -14813.2 -7.41467 
2296 1 24.172 7.147 3 6.02705 -140011 -140040 -68226.7 -1599.96 17015 -27244.6 -7.416 
2297 1 23.452 5.925 3 6.0257 -129728 -142578 -90433.8 25020.7 -2097.99 -17686.6 -7.41477 
2298 1 24.15 4.691 3 6.02367 -178219 -121990 -72922.8 14392.4 15573.6 -26687.7 -7.41611 
2299 1 23.429 3.469 3 6.02094 -122455 -127053 -87826.4 38985.6 -5652.34 -20413.5 -7.41481 
2300 1 24.127 2.235 3 6.02772 -143575 -175319 -77470.2 -21100.3 13428.6 -25698.2 -7.41564 
2301 1 23.407 1.014 3 6.02153 -135744 -150129 -84345.6 -8502.1 -9152.27 -22715.1 -7.41512 
2483 1 25.612 9.59 3 6.02324 -167671 -122092 -92240.2 2067.27 -672.888 -10381.3 -7.41503 
2484 1 26.31 8.355 3 6.02629 -142087 -138135 -62055.8 -38700.9 18286.3 -24201.6 -7.41632 
2485 1 25.59 7.134 3 6.02705 -128647 -141415 -89899 -13985.6 -3249.18 -12674.5 -7.41477 
2486 1 26.288 5.899 3 6.02413 -132242 -121074 -66831.3 -25025.4 17558.9 -23183.8 -7.41607 
2487 1 25.567 4.678 3 6.02324 -170872 -122193 -86852.2 2508.61 -6221.08 -15033.4 -7.41533 
2488 1 26.265 3.443 3 6.01966 -136050 -142209 -72090.3 -39231 15908.3 -21899 -7.41564 
2489 1 25.545 2.222 3 6.02772 -139951 -175483 -83272.5 5046.86 -9409.03 -17198.3 -7.41531 
2490 1 26.243 0.988 3 6.02214 -128838 -132385 -76855.1 8078.67 13526.5 -20510.9 -7.41554 
2672 1 28.448 9.564 3 6.02517 -151427 -152792 -55878.2 11469.1 19799 -22613.1 -7.41684 
2673 1 27.728 8.342 3 6.02536 -127244 -137397 -90463.8 23326.7 -4119.26 -9145.53 -7.41517 
2674 1 28.426 7.108 3 6.02421 -142205 -135665 -60910.9 -551.609 19488.6 -20938.5 -7.4166 
2675 1 27.706 5.886 3 6.02327 -135816 -155410 -87424.2 38974.7 -6769.77 -10818.2 -7.41531 
2676 1 28.403 4.652 3 6.02517 -146888 -154118 -66431.5 11345 18285.2 -19252.4 -7.41626 
2677 1 27.683 3.43 3 6.02179 -129313 -140052 -83518.4 23996 -9812.2 -12729 -7.41543 
2678 1 28.381 2.196 3 6.02416 -145733 -170159 -71659.5 -19589.8 16302.6 -17603.6 -7.41616 
2679 1 27.661 0.975 3 6.01977 -142015 -163448 -79263 5886.7 -12692.7 -14581.7 -7.41578 
13636 2 19.783 7.55 6.4 6.02125 -138179 -157589 -95277.7 26090.2 4805.44 -24304.8 -7.41469 
13638 2 19.806 5.094 6.4 6.02415 -132659 -139435 -94087.3 37955.5 1100.82 -28353.9 -7.41478 
13640 2 19.828 2.638 6.4 6.02369 -141401 -156512 -92307 25842.3 -3147.61 -31625.4 -7.41486 
13642 2 19.851 0.182 6.4 6.02417 -138064 -147109 -89237 32601.5 -7465.97 -33935.6 -7.41506 
13824 2 21.899 8.797 6.4 6.02418 -136647 -172455 -93473.7 17470.6 3025.28 -18318.2 -7.41525 
13825 2 21.201 7.563 6.4 6.02364 -142041 -137337 -73998.7 -23978.4 18446.6 -30494.6 -7.41576 
13826 2 21.921 6.341 6.4 6.02327 -135759 -158362 -92081 -13172.5 126.332 -22109.3 -7.41507 
13827 2 21.224 5.107 6.4 6.02517 -148203 -153916 -78360 -36199.9 16493 -30393.2 -7.41562 
13828 2 21.944 3.885 6.4 6.02536 -130485 -140121 -89980.2 2170.25 -3441.85 -25465.3 -7.41522 
13829 2 21.246 2.651 6.4 6.0242 -138854 -137230 -82500.6 -24735.5 13403.5 -29788.1 -7.41543 
13830 2 21.966 1.429 6.4 6.02305 -139012 -158073 -87236.9 -13398 -7057.42 -28133.2 -7.41531 
13831 2 21.269 0.195 6.4 6.0258 -145429 -164920 -86005.3 -32211.8 9415.38 -28414.3 -7.41522 
14013 2 23.317 8.81 6.4 6.02587 -160095 -185029 -66945.3 -17291.3 18477.8 -27101.1 -7.41644 
14014 2 24.037 7.589 6.4 6.02238 -126793 -143111 -91474.8 39730.2 -1037.99 -16211.9 -7.41479 
14015 2 23.339 6.354 6.4 6.02413 -133271 -120548 -71363 -44.6527 17645.9 -26622.6 -7.41583 
14016 2 24.06 5.133 6.4 6.02324 -170221 -123274 -89039.1 23727.3 -3988.76 -19292.7 -7.41522 
14017 2 23.362 3.898 6.4 6.02629 -138546 -139488 -75832.1 13426.1 15574.4 -25762.8 -7.41557 
14018 2 24.082 2.677 6.4 6.02705 -131602 -142201 -85946.3 40052.3 -7326.28 -22025.3 -7.41501 
14019 2 23.384 1.442 6.4 6.02401 -128283 -123067 -80442.1 -651.994 12746.1 -24551.7 -7.4153 
14020 2 24.105 0.221 6.4 6.02325 -175832 -131693 -81831 18868.8 -10436.4 -24165.7 -7.41563 
14202 2 26.153 8.836 6.4 6.02418 -127369 -157332 -91171.2 4836.04 -1910.92 -11388.2 -7.41493 
14203 2 25.455 7.602 6.4 6.02044 -139361 -141935 -65023.3 -23498.2 18605.2 -23480.1 -7.41604 
14204 2 26.175 6.38 6.4 6.0257 -128591 -141926 -88743.8 1018.04 -4578.05 -13918.1 -7.41485 
14205 2 25.477 5.146 6.4 6.02367 -179065 -121231 -69826.2 -39831.8 17411 -22313.1 -7.41628 
14206 2 26.198 3.924 6.4 6.02392 -122804 -124088 -85237.6 -12584 -7628.26 -16414.5 -7.41506 
14207 2 25.5 2.69 6.4 6.02705 -136197 -141083 -74803.1 -23765.2 15405.2 -20864.7 -7.41563 
14208 2 26.22 1.468 6.4 6.02445 -132038 -142289 -81598 1241.35 -10614.5 -18619.8 -7.41522 
14209 2 25.522 0.234 6.4 6.02391 -176226 -131500 -79061.3 -35326.6 12527.9 -19214.3 -7.41579 
14391 2 27.571 8.849 6.4 6.02303 -157530 -185836 -58777.5 -20027.9 19641.5 -21734.4 -7.41709 
14392 2 28.291 7.628 6.4 6.02217 -128578 -138708 -89353.1 37779.1 -4807.82 -9987.99 -7.41488 
14393 2 27.593 6.393 6.4 6.02468 -140365 -135056 -63726.5 13946.3 19145 -20016 -7.41664 
14394 2 28.313 5.172 6.4 6.02369 -138701 -154064 -85990.4 25907.6 -7717.1 -11952.9 -7.41517 
14395 2 27.616 3.937 6.4 6.02341 -144934 -153464 -69091.5 -1500.11 17682.3 -18174.7 -7.41632 
14396 2 28.336 2.716 6.4 6.02415 -133653 -136373 -81813.9 38040.9 -10832.7 -13976.2 -7.41543 
14397 2 27.638 1.481 6.4 6.02404 -135330 -136827 -74248.4 13854.8 15508.4 -16504 -7.41603 
14398 2 28.358 0.26 6.4 6.02493 -144456 -163105 -76933.7 21489.2 -13692 -15818.8 -7.41569 
2861 1 29.866 9.551 3 6.02415 -129053 -134989 -91130.9 -13253 -4262 -7297.19 -7.4149 
2862 1 30.564 8.316 3 6.02468 -141369 -135030 -55183.5 -40096.8 21906.2 -20338.7 -7.41711 
2863 1 29.844 7.095 3 6.02369 -137564 -152925 -87849 -1022.11 -7006.72 -8362.2 -7.41506 
2864 1 30.541 5.86 3 6.02341 -146002 -153221 -60938.9 -24732.9 20918 -18117.2 -7.41676 
2865 1 29.821 4.639 3 6.02415 -132338 -135396 -83984.5 -12628.5 -9923.48 -9712.57 -7.41529 
2866 1 30.519 3.404 3 6.02217 -137571 -137790 -66767.8 -38479 19212.1 -16131.9 -7.41613 
2867 1 29.799 2.183 3 6.02392 -149023 -187526 -79490.1 18363.7 -12903.7 -11283.1 -7.41569 
2868 1 30.496 0.949 3 6.02149 -144882 -163252 -72466.3 7181.42 16664.2 -14254.5 -7.41593 
3050 1 32.702 9.525 3 6.02705 -141406 -139773 -49055.4 -2282.92 24509.5 -21428 -7.41703 
3051 1 31.982 8.303 3 6.0257 -126873 -139047 -88996.5 23410.4 -6600.7 -7764.36 -7.41481 
3052 1 32.68 7.069 3 6.02367 -179643 -121003 -55139.4 14017.1 23737.6 -18709.7 -7.41708 
3053 1 31.959 5.847 3 6.02392 -120940 -121490 -85147.6 37525.3 -9712.26 -8568.22 -7.41504 
3054 1 32.657 4.613 3 6.02587 -136873 -138378 -61304.2 -1697.51 22190.6 -16290.6 -7.41656 
3055 1 31.937 3.391 3 6.02023 -137974 -156022 -80679.7 36916.2 -12767.9 -9609.04 -7.41532 
3056 1 32.634 2.157 3 6.02304 -149752 -187888 -67627.9 -5504.86 19756.3 -14112.5 -7.41655 
3057 1 31.914 0.936 3 6.02276 -136831 -144022 -75450.7 -8295.62 -15863 -11140.9 -7.41578 
3239 1 34.12 9.512 3 6.02705 -125875 -138283 -89766.9 -15974.9 -5577.89 -8905.57 -7.41474 
3240 1 34.818 8.277 3 6.02413 -133479 -120937 -48978.3 -24805.5 27046.8 -20870.5 -7.41704 
3241 1 34.097 7.056 3 6.02324 -167809 -119344 -85844 629.395 -8839.48 -9082.23 -7.41535 
3242 1 34.795 5.821 3 6.02629 -138704 -138913 -55818.3 -38491.5 25512 -17992.2 -7.41663 
3243 1 34.075 4.6 3 6.02705 -129090 -138767 -81553.9 -15389 -12149.8 -9690.01 -7.4152 
3244 1 34.773 3.365 3 6.02217 -126598 -124126 -62274 -23647.3 23206.7 -15644.1 -7.41617 
3245 1 34.052 2.144 3 6.02418 -131055 -155362 -76316.2 19664.1 -15637.7 -10791.7 -7.41569 
3246 1 34.75 0.91 3 6.02231 -134548 -149360 -68831.4 -5701.51 20041.6 -13529.6 -7.41593 
3428 1 36.956 9.486 3 6.02421 -143327 -136640 -42558.3 329.012 30349.9 -24213.3 -7.4176 
3429 1 36.236 8.264 3 6.02327 -132876 -153368 -86934 36802.1 -7320.87 -11196.3 -7.4153 
3430 1 36.933 7.03 3 6.02517 -147946 -154426 -49700.2 12386.7 29002 -21097.9 -7.41717 
3431 1 36.213 5.808 3 6.02536 -127502 -135707 -82634.6 21679.7 -11045.5 -11408.5 -7.41557 
3432 1 36.911 4.574 3 6.02418 -137870 -136126 -56588 884.48 26692.5 -18433.5 -7.41693 
3433 1 36.191 3.352 3 6.01691 -134853 -156311 -77796.3 37520.8 -14726.9 -12007.4 -7.41568 
3434 1 36.888 2.118 3 6.02587 -151952 -187960 -63635.6 -5941.37 23539.8 -16177.7 -7.41642 
3435 1 36.168 0.897 3 6.02276 -133741 -144360 -72051.2 -11080.7 -18482.1 -13185.3 -7.41617 
14580 2 30.406 8.875 6.4 6.02392 -143938 -186761 -89967.2 6211.43 -4421.96 -7823.31 -7.41513 
14581 2 29.709 7.641 6.4 6.02023 -148631 -155357 -58029.4 -37741.7 21042.2 -19219.2 -7.4166 
14582 2 30.429 6.419 6.4 6.02421 -129925 -136418 -86652.8 -484.646 -7469.31 -9211.53 -7.41515 
14583 2 29.731 5.185 6.4 6.02421 -140740 -135535 -63525 -25659.2 20066.3 -17002.2 -7.41644 
14584 2 30.451 3.963 6.4 6.02466 -138758 -154368 -82407.9 -12099.4 -10610.3 -10737.6 -7.41536 
14585 2 29.754 2.729 6.4 6.02466 -145371 -153757 -69284.2 -37550.1 18249.2 -14967 -7.4161 
14586 2 30.474 1.507 6.4 6.02422 -133477 -137215 -77792.2 53.1527 -13813.7 -12504.5 -7.41562 
14587 2 29.776 0.273 6.4 6.02418 -137821 -145125 -74434.6 -20651.5 15754.5 -13046.7 -7.41585 
14769 2 31.824 8.888 6.4 6.02418 -152528 -167712 -51861.4 -6591.62 23153.8 -20212.3 -7.41729 
14770 2 32.544 7.667 6.4 6.01853 -132516 -155501 -87791.3 23265.6 -6551.13 -8320.62 -7.41513 
14771 2 31.847 6.432 6.4 6.02369 -149208 -152099 -57711.6 285.937 22447.6 -17454.5 -7.41673 
14772 2 32.567 5.211 6.4 6.02468 -128706 -135507 -83641.8 38679.2 -10099.5 -9412.29 -7.41551 
14773 2 31.869 3.976 6.4 6.02415 -139846 -134687 -63773.7 12273.9 20916.5 -15046.7 -7.41641 
14774 2 32.589 2.755 6.4 6.02341 -137596 -153434 -79041 23660.1 -13505.5 -10710.8 -7.41575 
14775 2 31.892 1.52 6.4 6.02245 -144061 -153166 -69916.1 602.885 18615.7 -12894.3 -7.41601 
14776 2 32.612 0.299 6.4 6.02532 -134496 -144920 -73304.9 34516.7 -16870.5 -12298.4 -7.41611 
14958 2 34.66 8.914 6.4 6.02772 -133722 -172375 -88621.6 18971.9 -5251.11 -9270.18 -7.41501 
14959 2 33.962 7.68 6.4 6.02154 -130905 -124456 -51785.3 -39585.1 25187.1 -19560 -7.41676 
14960 2 34.683 6.458 6.4 6.02392 -119007 -122102 -84523.7 -15562.7 -8981.74 -9794.88 -7.41506 
14961 2 33.985 5.224 6.4 6.02637 -137607 -139837 -58413.9 -23402.7 23802.1 -16682.9 -7.4165 
14962 2 34.705 4.002 6.4 6.02637 -128448 -140077 -79958.2 612.788 -12717.6 -10620.3 -7.4153 
14963 2 34.007 2.768 6.4 6.02392 -127508 -122150 -64590.9 -39071.7 21686.9 -14325.1 -7.41617 
14964 2 34.728 1.546 6.4 6.02332 -122512 -123134 -74587.2 -14951.6 -16585.1 -11952.5 -7.41558 
14965 2 34.03 0.312 6.4 6.02763 -134598 -148841 -70836 -18091.8 18768 -12284.2 -7.41583 
15147 2 36.078 8.927 6.4 6.02654 -149534 -171070 -45451.7 -4558.14 28191.7 -22899.8 -7.41764 
15148 2 36.798 7.706 6.4 6.01881 -134208 -154752 -85674.4 23913.6 -7204.48 -11770.4 -7.41503 
15149 2 36.101 6.471 6.4 6.02341 -146172 -153274 -52439.4 -648.735 26868.7 -19718.1 -7.41722 
15150 2 36.821 5.25 6.4 6.02415 -130261 -134837 -81106.5 35818.2 -11447.5 -12237.7 -7.41543 
15151 2 36.123 4.015 6.4 6.02468 -136809 -135488 -59096.7 14880.9 24759.6 -17094.5 -7.41687 
15152 2 36.843 2.794 6.4 6.02369 -139143 -152768 -76012.6 24211.6 -15658.3 -13099.2 -7.41569 
15153 2 36.146 1.559 6.4 6.02217 -140938 -153760 -65970.8 -121.64 21806.7 -14823.5 -7.41643 
15154 2 36.866 0.338 6.4 6.02417 -135972 -144472 -69927 31654.7 -19820.9 -14393 -7.41607 
15337 2 38.216 7.719 6.4 6.02179 -140373 -139176 -45772.8 -24432.3 30297.8 -23862.7 -7.41729 
15339 2 38.239 5.263 6.4 6.02466 -146367 -154352 -53099 -35998.2 28148.2 -20950.9 -7.41697 
15341 2 38.261 2.807 6.4 6.02421 -136870 -136388 -60046 -23830.5 25232.6 -18525.4 -7.41661 
15343 2 38.284 0.351 6.4 6.02467 -143310 -162937 -66899.3 -30611.3 21592.4 -16650.6 -7.41622 
3617 1 38.374 9.473 3 6.02341 -134921 -152127 -87215.5 -3164.82 -5451.04 -14380.8 -7.41506 
3618 1 39.071 8.238 3 6.02341 -149299 -154326 -42846.1 -24750.4 32594 -25104.3 -7.41755 
3619 1 38.351 7.017 3 6.02415 -129222 -134651 -83073.7 -14947.3 -9323.52 -14224.6 -7.41531 
3620 1 39.049 5.782 3 6.02217 -138425 -138907 -50414 -36726 30435.5 -22324.8 -7.41702 
3621 1 38.329 4.561 3 6.02392 -146582 -186707 -78490.2 16152.5 -13425.1 -14523.6 -7.41562 
3622 1 39.026 3.327 3 6.0183 -142386 -157399 -57871.8 13631.8 27164.8 -19867.9 -7.41657 
3623 1 38.306 2.105 3 6.02419 -131267 -136237 -72898.1 23517.6 -17621.3 -15295.5 -7.41598 
3624 1 39.004 0.871 3 6.02424 -137686 -143335 -64755.8 -2803.71 23328.8 -17959.9 -7.41648 
3806 1 41.209 9.447 3 6.02327 -147201 -157239 -35501.2 15469.7 35978.8 -29474.8 -7.41817 
3807 1 40.489 8.225 3 6.0242 -127748 -136259 -83271.5 22257.8 -7303.96 -17854.6 -7.41531 
3808 1 41.187 6.991 3 6.02536 -137771 -139086 -43155.7 230.106 34063.6 -26692.3 -7.41777 
3809 1 40.467 5.769 3 6.02023 -134683 -156761 -78923.6 34437.4 -11571 -17887.8 -7.41539 
3810 1 41.164 4.535 3 6.02303 -150785 -189450 -51314.7 -3149.8 30966 -24229.8 -7.41747 
3811 1 40.444 3.314 3 6.02217 -130021 -138220 -73648.3 -15505.1 -16179.2 -18371.1 -7.41571 
3812 1 41.142 2.079 3 6.02404 -133022 -138250 -58460.2 -37106.4 27064.4 -22192.1 -7.41686 
3813 1 40.422 0.858 3 6.02493 -143577 -160397 -67766.6 1497.12 -20672.4 -19323.1 -7.41628 
3995 1 42.627 9.434 3 6.02413 -117397 -122967 -82767.1 -1716.64 -5084.32 -21496.1 -7.41514 
3996 1 43.325 8.199 3 6.02773 -138898 -143598 -35404.5 -36693.5 37474.6 -30996.5 -7.41777 
3997 1 42.605 6.978 3 6.02773 -126181 -141013 -78615.5 -17743.8 -9443.5 -21513.3 -7.41535 
3998 1 43.303 5.743 3 6.02217 -127235 -127857 -43594.4 -20883.4 34782.5 -28729 -7.41721 
3999 1 42.582 4.522 3 6.02418 -127961 -157010 -73517 16958.2 -14344.3 -21845.9 -7.41586 
4000 1 43.28 3.288 3 6.02044 -131853 -146292 -51874.9 1561.41 30776.5 -26656.8 -7.41672 
4001 1 42.56 2.066 3 6.02512 -128537 -142983 -67960.9 20166.2 -19248.4 -22543.5 -7.41592 
4002 1 43.258 0.832 3 6.02424 -126550 -132125 -59082.3 12848.1 26193.7 -25064.2 -7.4166 
4184 1 45.463 9.408 3 6.02517 -148725 -159772 -26781.9 15722.2 40447.7 -34676 -7.41845 
4185 1 44.743 8.186 3 6.02536 -125160 -139513 -77812.9 19634.3 -7245.97 -24834.1 -7.41582 
4186 1 45.441 6.952 3 6.02421 -139162 -141626 -35502.5 3868.2 38140.3 -32627.1 -7.41799 
4187 1 44.721 5.73 3 6.01937 -131818 -160065 -73390.2 35017.6 -12049.1 -25169.4 -7.41591 
4188 1 45.418 4.496 3 6.02587 -152199 -191852 -44040 -3021.04 34575.9 -30788.4 -7.41767 
4189 1 44.698 3.275 3 6.02217 -127008 -141441 -67755.3 -18538.9 -17320.1 -25720.7 -7.41624 
4190 1 45.396 2.04 3 6.02403 -134382 -140668 -51927.1 -33645.9 29985.8 -29177.4 -7.41701 
4191 1 44.676 0.819 3 6.02394 -140374 -163701 -61787.2 1718.8 -22573.5 -26648.5 -7.41682 
4373 1 46.881 9.395 3 6.02415 -127598 -139758 -76958.7 -16634 -5137.29 -27297.1 -7.41566 
4374 1 47.579 8.16 3 6.02415 -140526 -142715 -26656.8 -32882.4 41083.7 -35469.4 -7.41847 
4375 1 46.859 6.939 3 6.02341 -135441 -157629 -72498.9 -5080.39 -9869.13 -27735.7 -7.41588 
4376 1 47.556 5.704 3 6.01853 -143497 -162494 -35727.5 -21154.8 37921.5 -33961.2 -7.41781 
4377 1 46.836 4.483 3 6.02418 -137672 -173838 -67158.1 1596.32 -15148.4 -28363.6 -7.4164 
4378 1 47.534 3.249 3 6.02179 -133470 -145350 -44325.8 5208.41 33660.2 -32639.1 -7.41736 
4379 1 46.814 2.027 3 6.02391 -137382 -159776 -61183.8 32464.5 -20750.3 -29153.6 -7.41648 
4380 1 47.511 0.793 3 6.02467 -142877 -166799 -52171.7 12401.1 28347.3 -31446.6 -7.41715 
15336 2 38.914 8.953 6.4 6.02418 -135745 -168699 -85944.2 16246.3 -5189.02 -14867.1 -7.41536 
15338 2 38.936 6.497 6.4 6.02466 -135542 -153948 -81673.9 -14529 -9515.97 -14993.8 -7.41537 
15340 2 38.959 4.041 6.4 6.02421 -130229 -136356 -76820.3 -2391.3 -14234 -15528.1 -7.41567 
15342 2 38.981 1.585 6.4 6.02391 -138848 -155044 -71154 -14093.9 -18820.5 -16489.3 -7.41592 
15525 2 40.332 8.966 6.4 6.02587 -158197 -188460 -38505.3 -16517.1 33684.7 -28383.6 -7.41799 
15526 2 41.052 7.745 6.4 6.02217 -124400 -139006 -81905.3 36566.3 -7415.81 -18607.3 -7.41547 