(written by TR)

296	atoms
2	atom types
0	14.9392648	xlo xhi
0	25.8755656	ylo yhi
0	18.4	zlo zhi


Masses

1	12
2	12

Atoms

1 1 1 0 0.60564587 24.59344300 7.50000000 0 0 0
2 1 1 0 0.40376391 22.14575436 7.50000000 0 0 0
3 1 1 0 0.20188196 19.69806572 7.50000000 0 0 0
4 1 1 0 0.00000000 17.25037708 7.50000000 0 0 0
5 1 1 0 2.82634739 25.64245241 7.50000000 0 0 0
6 1 1 0 2.01881956 24.47688639 7.50000000 0 0 0
7 1 1 0 2.62446543 23.19476377 7.50000000 0 0 0
8 1 1 0 1.81693761 22.02919775 7.50000000 0 0 0
9 1 1 0 2.42258348 20.74707513 7.50000000 0 0 0
10 1 1 0 1.61505565 19.58150912 7.50000000 0 0 0
11 1 1 0 2.22070152 18.29938649 7.50000000 0 0 0
12 1 1 0 1.41317370 17.13382048 7.50000000 0 0 0
13 1 1 0 2.01881956 15.85169786 7.50000000 0 0 0
14 1 1 0 1.21129174 14.68613184 7.50000000 0 0 0
15 1 1 0 1.81693761 13.40400922 7.50000000 0 0 0
16 1 1 0 1.00940978 12.23844320 7.50000000 0 0 0
17 1 1 0 1.61505565 10.95632058 7.50000000 0 0 0
18 1 1 0 0.80752783 9.79075456 7.50000000 0 0 0
19 1 1 0 1.41317370 8.50863194 7.50000000 0 0 0
20 1 1 0 0.60564587 7.34306592 7.50000000 0 0 0
21 1 1 0 1.21129174 6.06094330 7.50000000 0 0 0
22 1 1 0 0.40376391 4.89537728 7.50000000 0 0 0
23 1 1 0 1.00940978 3.61325466 7.50000000 0 0 0
24 1 1 0 0.20188196 2.44768864 7.50000000 0 0 0
25 1 1 0 0.80752783 1.16556602 7.50000000 0 0 0
26 1 1 0 0.00000000 0.00000000 7.50000000 0 0 0
27 1 1 0 4.23952109 25.52589581 7.50000000 0 0 0
28 1 1 0 4.84516695 24.24377319 7.50000000 0 0 0
29 1 1 0 4.03763913 23.07820717 7.50000000 0 0 0
30 1 1 0 4.64328500 21.79608455 7.50000000 0 0 0
31 1 1 0 3.83575717 20.63051853 7.50000000 0 0 0
32 1 1 0 4.44140304 19.34839591 7.50000000 0 0 0
33 1 1 0 3.63387522 18.18282989 7.50000000 0 0 0
34 1 1 0 4.23952108 16.90070727 7.50000000 0 0 0
35 1 1 0 3.43199326 15.73514125 7.50000000 0 0 0
36 1 1 0 4.03763913 14.45301863 7.50000000 0 0 0
37 1 1 0 3.23011130 13.28745261 7.50000000 0 0 0
38 1 1 0 3.83575717 12.00532999 7.50000000 0 0 0
39 1 1 0 3.02822935 10.83976397 7.50000000 0 0 0
40 1 1 0 3.63387522 9.55764135 7.50000000 0 0 0
41 1 1 0 2.82634739 8.39207534 7.50000000 0 0 0
42 1 1 0 3.43199326 7.10995271 7.50000000 0 0 0
43 1 1 0 2.62446543 5.94438670 7.50000000 0 0 0
44 1 1 0 3.23011130 4.66226408 7.50000000 0 0 0
45 1 1 0 2.42258348 3.49669806 7.50000000 0 0 0
46 1 1 0 3.02822935 2.21457544 7.50000000 0 0 0
47 1 1 0 2.22070152 1.04900942 7.50000000 0 0 0
48 1 1 0 7.06586847 25.29278261 7.50000000 0 0 0
49 1 1 0 6.25834065 24.12721659 7.50000000 0 0 0
50 1 1 0 6.86398652 22.84509397 7.50000000 0 0 0
51 1 1 0 6.05645869 21.67952795 7.50000000 0 0 0
52 1 1 0 6.66210456 20.39740533 7.50000000 0 0 0
53 1 1 0 5.85457674 19.23183931 7.50000000 0 0 0
54 1 1 0 6.46022261 17.94971669 7.50000000 0 0 0
55 1 1 0 5.65269478 16.78415067 7.50000000 0 0 0
56 1 1 0 6.25834065 15.50202805 7.50000000 0 0 0
57 1 1 0 5.45081282 14.33646203 7.50000000 0 0 0
58 1 1 0 6.05645869 13.05433941 7.50000000 0 0 0
59 1 1 0 5.24893087 11.88877339 7.50000000 0 0 0
60 1 1 0 5.85457674 10.60665077 7.50000000 0 0 0
61 1 1 0 5.04704891 9.44108475 7.50000000 0 0 0
62 1 1 0 5.65269478 8.15896213 7.50000000 0 0 0
63 1 1 0 4.84516695 6.99339611 7.50000000 0 0 0
64 1 1 0 5.45081282 5.71127349 7.50000000 0 0 0
65 1 1 0 4.64328500 4.54570747 7.50000000 0 0 0
66 1 1 0 5.24893087 3.26358485 7.50000000 0 0 0
67 1 1 0 4.44140304 2.09801883 7.50000000 0 0 0
68 1 1 0 5.04704891 0.81589621 7.50000000 0 0 0
69 1 1 0 8.47904217 25.17622601 7.50000000 0 0 0
70 1 1 0 9.08468804 23.89410338 7.50000000 0 0 0
71 1 1 0 8.27716021 22.72853737 7.50000000 0 0 0
72 1 1 0 8.88280608 21.44641475 7.50000000 0 0 0
73 1 1 0 8.07527826 20.28084873 7.50000000 0 0 0
74 1 1 0 8.68092413 18.99872611 7.50000000 0 0 0
75 1 1 0 7.87339630 17.83316009 7.50000000 0 0 0
76 1 1 0 8.47904217 16.55103747 7.50000000 0 0 0
77 1 1 0 7.67151434 15.38547145 7.50000000 0 0 0
78 1 1 0 8.27716021 14.10334883 7.50000000 0 0 0
79 1 1 0 7.46963239 12.93778281 7.50000000 0 0 0
80 1 1 0 8.07527826 11.65566019 7.50000000 0 0 0
81 1 1 0 7.26775043 10.49009417 7.50000000 0 0 0
82 1 1 0 7.87339630 9.20797155 7.50000000 0 0 0
83 1 1 0 7.06586847 8.04240553 7.50000000 0 0 0
84 1 1 0 7.67151434 6.76028291 7.50000000 0 0 0
85 1 1 0 6.86398652 5.59471689 7.50000000 0 0 0
86 1 1 0 7.46963239 4.31259427 7.50000000 0 0 0
87 1 1 0 6.66210456 3.14702825 7.50000000 0 0 0
88 1 1 0 7.26775043 1.86490563 7.50000000 0 0 0
89 1 1 0 6.46022261 0.69933961 7.50000000 0 0 0
90 1 1 0 11.30538956 24.94311280 7.50000000 0 0 0
91 1 1 0 10.49786173 23.77754678 7.50000000 0 0 0
92 1 1 0 11.10350760 22.49542416 7.50000000 0 0 0
93 1 1 0 10.29597978 21.32985814 7.50000000 0 0 0
94 1 1 0 10.90162565 20.04773552 7.50000000 0 0 0
95 1 1 0 10.09409782 18.88216950 7.50000000 0 0 0
96 1 1 0 10.69974369 17.60004688 7.50000000 0 0 0
97 1 1 0 9.89221586 16.43448086 7.50000000 0 0 0
98 1 1 0 10.49786173 15.15235824 7.50000000 0 0 0
99 1 1 0 9.69033391 13.98679223 7.50000000 0 0 0
100 1 1 0 10.29597978 12.70466960 7.50000000 0 0 0
101 1 1 0 9.48845195 11.53910359 7.50000000 0 0 0
102 1 1 0 10.09409782 10.25698097 7.50000000 0 0 0
103 1 1 0 9.28657000 9.09141495 7.50000000 0 0 0
104 1 1 0 9.89221586 7.80929233 7.50000000 0 0 0
105 1 1 0 9.08468804 6.64372631 7.50000000 0 0 0
106 1 1 0 9.69033391 5.36160369 7.50000000 0 0 0
107 1 1 0 8.88280608 4.19603767 7.50000000 0 0 0
108 1 1 0 9.48845195 2.91391505 7.50000000 0 0 0
109 1 1 0 8.68092413 1.74834903 7.50000000 0 0 0
110 1 1 0 9.28656999 0.46622641 7.50000000 0 0 0
111 1 1 0 12.71856325 24.82655620 7.50000000 0 0 0
112 1 1 0 13.32420912 23.54443358 7.50000000 0 0 0
113 1 1 0 12.51668130 22.37886756 7.50000000 0 0 0
114 1 1 0 13.12232717 21.09674494 7.50000000 0 0 0
115 1 1 0 12.31479934 19.93117892 7.50000000 0 0 0
116 1 1 0 12.92044521 18.64905630 7.50000000 0 0 0
117 1 1 0 12.11291738 17.48349028 7.50000000 0 0 0
118 1 1 0 12.71856325 16.20136766 7.50000000 0 0 0
119 1 1 0 11.91103543 15.03580164 7.50000000 0 0 0
120 1 1 0 12.51668130 13.75367902 7.50000000 0 0 0
121 1 1 0 11.70915347 12.58811300 7.50000000 0 0 0
122 1 1 0 12.31479934 11.30599038 7.50000000 0 0 0
123 1 1 0 11.50727152 10.14042436 7.50000000 0 0 0
124 1 1 0 12.11291738 8.85830174 7.50000000 0 0 0
125 1 1 0 11.30538956 7.69273572 7.50000000 0 0 0
126 1 1 0 11.91103543 6.41061310 7.50000000 0 0 0
127 1 1 0 11.10350760 5.24504708 7.50000000 0 0 0
128 1 1 0 11.70915347 3.96292446 7.50000000 0 0 0
129 1 1 0 10.90162565 2.79735844 7.50000000 0 0 0
130 1 1 0 11.50727152 1.51523582 7.50000000 0 0 0
131 1 1 0 10.69974369 0.34966981 7.50000000 0 0 0
132 1 1 0 14.73738282 23.42787698 7.50000000 0 0 0
133 1 1 0 14.53550086 20.98018834 7.50000000 0 0 0
134 1 1 0 14.33361891 18.53249970 7.50000000 0 0 0
135 1 1 0 14.13173695 16.08481106 7.50000000 0 0 0
136 1 1 0 14.73738282 14.80268844 7.50000000 0 0 0
137 1 1 0 13.92985499 13.63712242 7.50000000 0 0 0
138 1 1 0 14.53550086 12.35499980 7.50000000 0 0 0
139 1 1 0 13.72797304 11.18943378 7.50000000 0 0 0
140 1 1 0 14.33361891 9.90731116 7.50000000 0 0 0
141 1 1 0 13.52609108 8.74174514 7.50000000 0 0 0
142 1 1 0 14.13173695 7.45962252 7.50000000 0 0 0
143 1 1 0 13.32420912 6.29405650 7.50000000 0 0 0
144 1 1 0 13.92985499 5.01193388 7.50000000 0 0 0
145 1 1 0 13.12232717 3.84636786 7.50000000 0 0 0
146 1 1 0 13.72797304 2.56424524 7.50000000 0 0 0
147 1 1 0 12.92044521 1.39867922 7.50000000 0 0 0
148 1 1 0 13.52609108 0.11655660 7.50000000 0 0 0
149 2 2 0 -0.00000000 8.62518854 10.90000000 0 0 0
150 2 2 0 0.20188196 6.17749990 10.90000000 0 0 0
151 2 2 0 0.40376391 3.72981126 10.90000000 0 0 0
152 2 2 0 0.60564587 1.28212262 10.90000000 0 0 0
153 2 2 0 0.00000000 0.00000000 10.90000000 0 0 0
154 2 2 0 0.80752783 24.70999960 10.90000000 0 0 0
155 2 2 0 0.20188196 23.42787698 10.90000000 0 0 0
156 2 2 0 1.00940978 22.26231096 10.90000000 0 0 0
157 2 2 0 0.40376391 20.98018834 10.90000000 0 0 0
158 2 2 0 1.21129174 19.81462232 10.90000000 0 0 0
159 2 2 0 0.60564587 18.53249970 10.90000000 0 0 0
160 2 2 0 1.41317369 17.36693368 10.90000000 0 0 0
161 2 2 0 0.80752783 16.08481106 10.90000000 0 0 0
162 2 2 0 1.61505565 14.91924504 10.90000000 0 0 0
163 2 2 0 1.00940978 13.63712242 10.90000000 0 0 0
164 2 2 0 1.81693761 12.47155640 10.90000000 0 0 0
165 2 2 0 1.21129174 11.18943378 10.90000000 0 0 0
166 2 2 0 2.01881956 10.02386776 10.90000000 0 0 0
167 2 2 0 1.41317369 8.74174514 10.90000000 0 0 0
168 2 2 0 2.22070152 7.57617912 10.90000000 0 0 0
169 2 2 0 1.61505565 6.29405650 10.90000000 0 0 0
170 2 2 0 2.42258348 5.12849048 10.90000000 0 0 0
171 2 2 0 1.81693761 3.84636786 10.90000000 0 0 0
172 2 2 0 2.62446543 2.68080184 10.90000000 0 0 0
173 2 2 0 2.01881956 1.39867922 10.90000000 0 0 0
174 2 2 0 2.82634739 0.23311320 10.90000000 0 0 0
175 2 2 0 2.22070152 24.82655620 10.90000000 0 0 0
176 2 2 0 3.02822935 23.66099018 10.90000000 0 0 0
177 2 2 0 2.42258348 22.37886756 10.90000000 0 0 0
178 2 2 0 3.23011130 21.21330154 10.90000000 0 0 0
179 2 2 0 2.62446543 19.93117892 10.90000000 0 0 0
180 2 2 0 3.43199326 18.76561290 10.90000000 0 0 0
181 2 2 0 2.82634739 17.48349028 10.90000000 0 0 0
182 2 2 0 3.63387522 16.31792426 10.90000000 0 0 0
183 2 2 0 3.02822935 15.03580164 10.90000000 0 0 0
184 2 2 0 3.83575717 13.87023562 10.90000000 0 0 0
185 2 2 0 3.23011130 12.58811300 10.90000000 0 0 0
186 2 2 0 4.03763913 11.42254698 10.90000000 0 0 0
187 2 2 0 3.43199326 10.14042436 10.90000000 0 0 0
188 2 2 0 4.23952108 8.97485834 10.90000000 0 0 0
189 2 2 0 3.63387522 7.69273572 10.90000000 0 0 0
190 2 2 0 4.44140304 6.52716971 10.90000000 0 0 0
191 2 2 0 3.83575717 5.24504708 10.90000000 0 0 0
192 2 2 0 4.64328500 4.07948107 10.90000000 0 0 0
193 2 2 0 4.03763913 2.79735845 10.90000000 0 0 0
194 2 2 0 4.84516695 1.63179243 10.90000000 0 0 0
195 2 2 0 4.23952108 0.34966981 10.90000000 0 0 0
196 2 2 0 5.04704891 25.05966940 10.90000000 0 0 0
197 2 2 0 4.44140304 23.77754678 10.90000000 0 0 0
198 2 2 0 5.24893087 22.61198076 10.90000000 0 0 0
199 2 2 0 4.64328500 21.32985814 10.90000000 0 0 0
200 2 2 0 5.45081282 20.16429213 10.90000000 0 0 0
201 2 2 0 4.84516695 18.88216950 10.90000000 0 0 0
202 2 2 0 5.65269478 17.71660349 10.90000000 0 0 0
203 2 2 0 5.04704891 16.43448086 10.90000000 0 0 0
204 2 2 0 5.85457674 15.26891485 10.90000000 0 0 0
205 2 2 0 5.24893087 13.98679223 10.90000000 0 0 0
206 2 2 0 6.05645869 12.82122621 10.90000000 0 0 0
207 2 2 0 5.45081282 11.53910359 10.90000000 0 0 0
208 2 2 0 6.25834065 10.37353757 10.90000000 0 0 0
209 2 2 0 5.65269478 9.09141495 10.90000000 0 0 0
210 2 2 0 6.46022261 7.92584893 10.90000000 0 0 0
211 2 2 0 5.85457674 6.64372631 10.90000000 0 0 0
212 2 2 0 6.66210456 5.47816029 10.90000000 0 0 0
213 2 2 0 6.05645869 4.19603767 10.90000000 0 0 0
214 2 2 0 6.86398652 3.03047165 10.90000000 0 0 0
215 2 2 0 6.25834065 1.74834903 10.90000000 0 0 0
216 2 2 0 7.06586847 0.58278301 10.90000000 0 0 0
217 2 2 0 6.46022260 25.17622601 10.90000000 0 0 0
218 2 2 0 7.26775043 24.01065999 10.90000000 0 0 0
219 2 2 0 6.66210456 22.72853737 10.90000000 0 0 0
220 2 2 0 7.46963239 21.56297135 10.90000000 0 0 0
221 2 2 0 6.86398652 20.28084873 10.90000000 0 0 0
222 2 2 0 7.67151434 19.11528271 10.90000000 0 0 0
223 2 2 0 7.06586847 17.83316009 10.90000000 0 0 0
224 2 2 0 7.87339630 16.66759407 10.90000000 0 0 0
225 2 2 0 7.26775043 15.38547145 10.90000000 0 0 0
226 2 2 0 8.07527826 14.21990543 10.90000000 0 0 0
227 2 2 0 7.46963239 12.93778281 10.90000000 0 0 0
228 2 2 0 8.27716021 11.77221679 10.90000000 0 0 0
229 2 2 0 7.67151434 10.49009417 10.90000000 0 0 0
230 2 2 0 8.47904217 9.32452815 10.90000000 0 0 0
231 2 2 0 7.87339630 8.04240553 10.90000000 0 0 0
232 2 2 0 8.68092413 6.87683951 10.90000000 0 0 0
233 2 2 0 8.07527826 5.59471689 10.90000000 0 0 0
234 2 2 0 8.88280608 4.42915087 10.90000000 0 0 0
235 2 2 0 8.27716021 3.14702825 10.90000000 0 0 0
236 2 2 0 9.08468804 1.98146223 10.90000000 0 0 0
237 2 2 0 8.47904217 0.69933961 10.90000000 0 0 0
238 2 2 0 9.28656999 25.40933921 10.90000000 0 0 0
239 2 2 0 8.68092413 24.12721659 10.90000000 0 0 0
240 2 2 0 9.48845195 22.96165057 10.90000000 0 0 0
241 2 2 0 8.88280608 21.67952795 10.90000000 0 0 0
242 2 2 0 9.69033391 20.51396193 10.90000000 0 0 0
243 2 2 0 9.08468804 19.23183931 10.90000000 0 0 0
244 2 2 0 9.89221586 18.06627329 10.90000000 0 0 0
245 2 2 0 9.28656999 16.78415067 10.90000000 0 0 0
246 2 2 0 10.09409782 15.61858465 10.90000000 0 0 0
247 2 2 0 9.48845195 14.33646203 10.90000000 0 0 0
248 2 2 0 10.29597978 13.17089601 10.90000000 0 0 0
249 2 2 0 9.69033391 11.88877339 10.90000000 0 0 0
250 2 2 0 10.49786173 10.72320737 10.90000000 0 0 0
251 2 2 0 9.89221586 9.44108475 10.90000000 0 0 0
252 2 2 0 10.69974369 8.27551873 10.90000000 0 0 0
253 2 2 0 10.09409782 6.99339611 10.90000000 0 0 0
254 2 2 0 10.90162565 5.82783009 10.90000000 0 0 0
255 2 2 0 10.29597978 4.54570747 10.90000000 0 0 0
256 2 2 0 11.10350760 3.38014145 10.90000000 0 0 0
257 2 2 0 10.49786173 2.09801883 10.90000000 0 0 0
258 2 2 0 11.30538956 0.93245282 10.90000000 0 0 0
259 2 2 0 10.69974369 25.52589581 10.90000000 0 0 0
260 2 2 0 11.50727151 24.36032979 10.90000000 0 0 0
261 2 2 0 10.90162565 23.07820717 10.90000000 0 0 0
262 2 2 0 11.70915347 21.91264115 10.90000000 0 0 0
263 2 2 0 11.10350760 20.63051853 10.90000000 0 0 0
264 2 2 0 11.91103543 19.46495251 10.90000000 0 0 0
265 2 2 0 11.30538956 18.18282989 10.90000000 0 0 0
266 2 2 0 12.11291738 17.01726387 10.90000000 0 0 0
267 2 2 0 11.50727152 15.73514125 10.90000000 0 0 0
268 2 2 0 12.31479934 14.56957524 10.90000000 0 0 0
269 2 2 0 11.70915347 13.28745261 10.90000000 0 0 0
270 2 2 0 12.51668130 12.12188660 10.90000000 0 0 0
271 2 2 0 11.91103543 10.83976397 10.90000000 0 0 0
272 2 2 0 12.71856325 9.67419796 10.90000000 0 0 0
273 2 2 0 12.11291738 8.39207534 10.90000000 0 0 0
274 2 2 0 12.92044521 7.22650932 10.90000000 0 0 0
275 2 2 0 12.31479934 5.94438670 10.90000000 0 0 0
276 2 2 0 13.12232717 4.77882068 10.90000000 0 0 0
277 2 2 0 12.51668130 3.49669806 10.90000000 0 0 0
278 2 2 0 13.32420912 2.33113204 10.90000000 0 0 0
279 2 2 0 12.71856325 1.04900942 10.90000000 0 0 0
280 2 2 0 13.52609108 25.75900902 10.90000000 0 0 0
281 2 2 0 12.92044521 24.47688639 10.90000000 0 0 0
282 2 2 0 13.72797304 23.31132038 10.90000000 0 0 0
283 2 2 0 13.12232717 22.02919776 10.90000000 0 0 0
284 2 2 0 13.92985499 20.86363174 10.90000000 0 0 0
285 2 2 0 13.32420912 19.58150912 10.90000000 0 0 0
286 2 2 0 14.13173695 18.41594310 10.90000000 0 0 0
287 2 2 0 13.52609108 17.13382048 10.90000000 0 0 0
288 2 2 0 14.33361890 15.96825446 10.90000000 0 0 0
289 2 2 0 13.72797304 14.68613184 10.90000000 0 0 0
290 2 2 0 14.53550086 13.52056582 10.90000000 0 0 0
291 2 2 0 13.92985499 12.23844320 10.90000000 0 0 0
292 2 2 0 14.73738282 11.07287718 10.90000000 0 0 0
293 2 2 0 14.13173695 9.79075456 10.90000000 0 0 0
294 2 2 0 14.33361891 7.34306592 10.90000000 0 0 0
295 2 2 0 14.53550086 4.89537728 10.90000000 0 0 0
296 2 2 0 14.73738282 2.44768864 10.90000000 0 0 0
