ITEM: TIMESTEP
65
ITEM: NUMBER OF ATOMS
1736
ITEM: BOX BOUNDS pp pp pp
0.0000000000000000e+00 3.6179139200000002e+01
0.0000000000000000e+00 6.2664107199999997e+01
0.0000000000000000e+00 1.5000000000000000e+01
ITEM: ATOMS id type x y z c_csym c_2[1] c_2[2] c_2[3] c_2[4] c_2[5] c_2[6] c_3 
53 1 0.347975 9.81738 2.9386 6.01775 -134132 -155582 24171.8 -12316.4 26669.1 336.892 -7.41882 
54 1 1.0137 8.5654 2.93219 6.02461 -161028 -128780 -17597.6 -15135 3371.64 -5340.9 -7.41554 
55 1 0.262772 7.36279 2.92677 6.01981 -133983 -153716 18474.1 -15793.2 20713.4 -2680.88 -7.41788 
56 1 0.928256 6.11065 2.92103 6.02261 -165238 -131982 -7214.8 -19198.5 7153 -3735.73 -7.41573 
57 1 0.176912 4.90834 2.91495 6.01936 -138342 -153964 9234.31 -16619.9 26087 -4346.67 -7.41678 
58 1 0.84177 3.65588 2.90893 6.01651 -163251 -134666 -2516 -13433.5 17086.6 -4881.62 -7.41573 
59 1 0.0894038 2.45415 2.90292 6.02239 -142683 -152792 -2239.15 -6873.18 21814.1 -1977.98 -7.41571 
60 1 0.753285 1.20125 2.89931 6.02305 -153292 -142392 -5881.11 -2802.98 10548.3 -7235.07 -7.41542 
61 1 6.68325e-06 -1.00672e-06 2.89735 6.03029 -147700 -147658 -7523.31 -20.6496 -0.0482575 -0.276294 -7.41531 
105 1 3.18076 9.71829 2.93921 6.01769 -177083 -106603 -15691.5 -20315.6 6039.95 -12143.2 -7.41602 
106 1 2.43074 8.51511 2.93309 6.01565 -152717 -134300 14806.1 -13692.6 19790.3 6678.73 -7.41791 
107 1 3.09571 7.26256 2.9283 6.02142 -175859 -114554 -4384.46 -20518 90.2088 -11842.4 -7.41624 
108 1 2.34524 6.05969 2.9225 6.01709 -154548 -136099 8621.21 -12886.2 19833.6 -814.786 -7.41702 
109 1 3.00989 4.80698 2.91852 6.0197 -175575 -118753 4157.95 -16167.7 6872.36 -15515.6 -7.41644 
110 1 2.2587 3.60451 2.91148 6.01564 -156263 -140003 438.4 -3223.52 22750.2 -8927.57 -7.41607 
111 1 2.92268 2.35156 2.90898 6.01939 -165470 -129165 3405.16 -3508.86 11874.5 -22204.5 -7.41619 
112 1 2.17021 1.14976 2.9029 6.01771 -151139 -145630 -4414.35 9154.73 9499.59 -15116.7 -7.41554 
156 1 4.59773 9.66806 2.94075 6.00923 -171207 -114448 4132.57 -19332.2 23365.8 9502.05 -7.41755 
157 1 5.26255 8.41529 2.93649 6.01468 -182319 -102285 1224.15 -25988.1 1716.91 -20975.9 -7.41709 
158 1 4.51266 7.21206 2.93053 6.01708 -163583 -124144 -1385.41 -12036.3 12034.2 4246.74 -7.41667 
159 1 5.17737 5.95931 2.92829 6.01799 -175525 -112622 11461.2 -18940.4 453.114 -19130.7 -7.41741 
160 1 4.42679 4.75645 2.9223 6.01886 -163525 -131456 -5111.45 -237.524 11631 -3144.09 -7.41601 
161 1 5.09113 3.50362 2.9212 6.01929 -168545 -121205 14392.1 -4137.62 6859.16 -21765.7 -7.41734 
162 1 4.33956 2.30123 2.91482 6.01816 -159183 -139622 -4659.52 17445.6 7731.85 -12014.4 -7.41572 
163 1 5.00358 1.04841 2.91591 6.01713 -154992 -138165 6816.18 9869.22 7931.29 -24053.5 -7.41666 
207 1 7.42836 9.56875 2.94809 6.00686 -195774 -89432.3 10240.4 -33682.2 6758.63 -35895.6 -7.41829 
208 1 6.67949 8.36492 2.9402 6.01151 -171065 -113171 -14370 -15156.7 13324 -1685.73 -7.41633 
209 1 7.34453 7.11229 2.93897 6.01601 -176428 -111501 17727.8 -22990.1 4453.21 -28696.1 -7.41841 
210 1 6.59431 5.90923 2.93249 6.02074 -160268 -128478 -16465.3 -1884.44 4220.74 -2686.33 -7.41573 
211 1 7.25928 4.6567 2.93241 6.01911 -164167 -123429 21320.7 -8129.1 7504.41 -20733.7 -7.41834 
212 1 6.50805 3.45412 2.92648 6.02371 -156776 -137644 -13208.9 16865.4 430.193 -4513.05 -7.41557 
213 1 7.17269 2.20157 2.92722 6.01845 -154914 -132998 15207.4 10028.1 11139.4 -16168.2 -7.41768 
214 1 6.42052 0.999405 2.92237 6.02218 -151105 -143748 -2549.34 33035.3 -6872.75 -8544.71 -7.4161 
258 1 8.84526 9.51885 2.95431 6.00169 -185879 -98907.4 -26543.2 -16301.6 18609.6 -11446.5 -7.41617 
260 1 8.76151 7.06269 2.94518 6.01444 -160823 -122543 -28151.2 -789.312 7062.36 -12359.1 -7.41566 
262 1 8.67626 4.60761 2.93817 6.02126 -148806 -136962 -23976.9 15333.6 -316.319 -9059.88 -7.41547 
264 1 8.58965 2.15309 2.93283 6.02242 -146007 -142130 -13194.1 32944.1 -7112.84 -6439.48 -7.41586 
874 2 0.403197 8.61506 6.46759 6.01914 -126524 -161074 21320.3 13594.9 21707.9 3868.1 -7.41834 
875 2 0.488672 6.16085 6.4788 6.01928 -129503 -160329 14392.5 18368 22279.5 4942.84 -7.41734 
876 2 0.575184 3.70688 6.49102 6.01942 -135229 -159610 3404.76 13922 25166.9 819.288 -7.41619 
877 2 0.663679 1.25298 6.50069 6.02297 -142629 -152935 -5880.65 3371.15 11539.6 -5517.72 -7.41542 
878 2 7.45231e-06 -6.16293e-07 6.50265 6.0303 -147736 -147597 -7523.15 65.228 -0.344231 -0.374461 -7.41531 
921 2 2.48717 9.91669 6.46103 6.01602 -107835 -180121 17727.4 16613.1 27077.7 10491.6 -7.41841 
922 2 1.8204 8.66545 6.46751 6.02076 -134775 -153831 -16465.6 12853.8 4436.79 -2312.54 -7.41572 
923 2 2.57224 7.46338 6.47171 6.01798 -111983 -176163 11461.1 17718.5 16794.5 9172.73 -7.41741 
924 2 1.90583 6.21193 6.4777 6.01883 -139338 -155740 -5111.63 13816.5 8538.17 -8500.78 -7.41601 
925 2 2.65804 5.01013 6.48148 6.01968 -118955 -175377 4157.48 16536.6 16872.6 1805.87 -7.41644 
926 2 1.99226 3.75834 6.48851 6.01566 -141283 -154917 438.586 5484.21 19106.3 -15239 -7.41607 
927 2 2.74522 2.55693 6.49107 6.01654 -130223 -167745 -2516.13 5634.39 12770.9 -12356.5 -7.41573 
928 2 2.08067 1.3045 6.49708 6.0224 -144265 -151169 -2239.33 -7843.9 12619.6 -17902.9 -7.41571 
929 2 2.83394 0.103183 6.49545 6.01743 -147307 -149035 -2590.09 -2738.99 -1780.55 -22867 -7.41571 
972 2 3.9045 9.96707 6.4598 6.01152 -114543 -169661 -14370 17513.2 8121.63 -10696.1 -7.41633 
973 2 4.65659 8.76514 6.46351 6.01467 -99828.2 -184844 1224.07 21639.7 19024.5 9001.1 -7.41709 
974 2 3.98951 7.51411 6.46947 6.01709 -123658 -164189 -1385.4 11059.3 2339.46 -12545 -7.41667 
975 2 4.74172 6.31224 6.4717 6.02144 -112108 -178305 -4384.61 16298.6 10301 5843.14 -7.41624 
976 2 4.07523 5.06087 6.4775 6.0171 -129560 -161043 8621.29 1508.19 10622.9 -16769.3 -7.41702 
977 2 4.82786 3.85921 6.47896 6.02262 -123679 -173540 -7214.33 4749.29 6812.15 -4326.53 -7.41573 
978 2 4.1623 2.60737 6.48505 6.01938 -135732 -156773 9234.58 -15090.2 16808.1 -20418.3 -7.41678 
979 2 4.91536 1.40585 6.48421 6.01711 -138026 -159638 -3357.4 -8749.7 -192.79 -17610.2 -7.41589 
980 2 4.2509 0.153396 6.48852 6.01794 -147146 -148874 1966 -25435.2 6708.53 -18971.8 -7.4161 
1023 2 6.74219 10.0662 6.45165 6.00719 -83888.6 -197655 -9301.71 32731.9 24796.7 2634.13 -7.41688 
1024 2 6.07393 8.81578 6.45925 6.00918 -111911 -173715 4132.8 14900 3454 -24986.7 -7.41755 
1025 2 6.82592 7.61375 6.46079 6.01767 -106616 -177008 -15691.2 20358.4 13535.9 840.612 -7.41602 
1026 2 6.15894 6.36264 6.46691 6.01564 -127026 -159914 14806 1081.44 4111.34 -20478.3 -7.41791 
1027 2 6.91102 5.16058 6.46781 6.02463 -123762 -165947 -17597.8 6433.31 6311.04 -249.826 -7.41554 
1028 2 6.24499 3.90895 6.47323 6.01982 -135089 -152592 18474.1 -16432.9 12678.1 -16598.1 -7.41788 
1029 2 6.9975 2.70704 6.47317 6.0217 -135437 -158012 -12336.1 -10005.9 -60.9024 -5477.41 -7.41568 
1030 2 6.33238 1.45494 6.47757 6.01897 -142338 -148221 11074.3 -32411.4 14714.4 -12977.5 -7.41712 
1031 2 7.08507 0.253046 6.47517 6.01759 -145381 -145967 936.301 -18589.9 -7737.6 -11926.2 -7.41656 
1074 2 8.15968 10.1165 6.44465 5.99726 -94796 -193561 15650.7 21496.6 7059.74 -41964.8 -7.41888 
1075 2 8.91132 8.91424 6.44572 6.01 -93753.9 -188300 -26909.1 25448.6 18420 -7327.02 -7.41596 
1076 2 8.24318 7.6638 6.45372 6.0085 -122860 -167850 22111.8 2373.24 7573.47 -33949.9 -7.41898 
1077 2 8.99473 6.46138 6.45453 6.01539 -117991 -164923 -28374.5 8819.22 12278 -7677.04 -7.41555 
1078 2 8.32813 5.21004 6.4614 6.01776 -139555 -150183 24172.3 -15455.6 13043.1 -23264.9 -7.41882 
1080 2 8.41452 2.75574 6.46721 6.01824 -145070 -142267 17738.6 -32868.1 17974.4 -13815.7 -7.4181 
1082 2 8.50204 0.301304 6.46945 6.01794 -145882 -141597 2955.29 -41141.9 15059.9 -7810.33 -7.4169 
259 1 9.51075 8.26635 2.95395 6.01109 -188009 -105060 29324.6 -22348.7 9256.54 -43102.6 -7.41989 
261 1 9.42707 5.81043 2.9457 6.01542 -168354 -124816 28195.4 -7902.08 14302.2 -31255.9 -7.41942 
263 1 9.34159 3.3554 2.93889 6.01451 -154232 -134571 20908.6 9906.27 18811.7 -19053.7 -7.4186 
265 1 9.25455 0.900775 2.93424 6.01452 -146386 -139938 6046.19 24241.5 15612.1 -11018.5 -7.41737 
309 1 11.6755 9.42265 2.97184 6.00428 -198401 -96176.1 52301.9 -16949.3 5600.78 -47087.3 -7.42215 
310 1 10.9277 8.21803 2.96216 6.00705 -172654 -111841 -43241.3 5900.3 11255.6 -16346.1 -7.41548 
311 1 11.5938 6.96595 2.96317 6.01179 -181721 -117331 44771.1 484.05 16145.1 -41362 -7.42127 
312 1 10.8441 5.76238 2.95357 6.01157 -151845 -130609 -35976.9 22557.4 4146.11 -17665.1 -7.4155 
313 1 11.5099 4.5104 2.95444 6.00765 -163245 -131826 31777.5 18441.7 26558.9 -31138 -7.41998 
314 1 10.7586 3.30768 2.94588 6.01426 -141725 -140407 -24127.6 38943.9 -2765.81 -15483.3 -7.4158 
315 1 11.4239 2.05556 2.94691 6.00455 -149240 -138634 13821.2 35972.2 27376.6 -21893.9 -7.41844 
316 1 10.6715 0.853305 2.94065 6.01337 -141860 -140873 -8406.34 51310.1 -13034.7 -14158.8 -7.41661 
360 1 13.0924 9.37599 2.97902 6.0106 -182319 -105335 -68552.9 8758.17 9404.36 -5829.07 -7.41452 
361 1 13.7592 8.12416 2.98067 6.01146 -186120 -109815 73415.6 8955.79 9615.26 -36123.9 -7.42385 
362 1 13.0107 6.91972 2.97146 6.01183 -164212 -120967 -56334.1 32419.6 4102.16 -13992.7 -7.41499 
363 1 13.6771 5.66794 2.97246 6.00371 -173863 -122881 53752.4 31134.7 25719.5 -33911 -7.42219 
364 1 12.9269 4.4644 2.96287 6.00952 -148928 -134774 -37730.7 52573.7 -152.659 -19196.1 -7.41565 
365 1 13.5927 3.2125 2.96353 5.99453 -157433 -133687 29674.3 53996.6 36531.9 -29941.9 -7.42015 
366 1 12.8409 2.00973 2.95508 6.00647 -141060 -140783 -18887.9 69582.2 -8889.87 -21054.1 -7.41647 
367 1 13.5059 0.75758 2.95696 5.99416 -145376 -141019 4686.93 68722.9 28758.1 -27134.6 -7.41821 
411 1 15.9242 9.28415 2.99209 6.01358 -169563 -117037 102772 8176.43 2906.04 -18078.8 -7.42615 
412 1 15.1761 8.07934 2.98579 6.02115 -166895 -119556 -86616.7 31030.4 -1471.79 -1680.5 -7.41364 
413 1 15.8435 6.82798 2.98673 6.00501 -169286 -120988 82312.4 36286.6 18689.6 -20791.6 -7.42465 
414 1 15.094 5.62378 2.97899 6.01639 -157671 -130626 -59773.5 59059.1 -4438.76 -10001.3 -7.41487 
415 1 15.7606 4.37225 2.97883 5.99131 -160603 -128549 52103.7 65523.4 36662 -21544.1 -7.42233 
416 1 15.0096 3.16881 2.97093 6.00368 -147100 -140017 -31898.7 84913.9 -7825.65 -15529.9 -7.41612 
417 1 15.6751 1.91692 2.97106 5.98579 -149383 -137295 21469.5 91141.3 40195.5 -23149.7 -7.41983 
418 1 14.9229 0.714089 2.96507 5.9952 -141649 -142304 -7956.73 100207 -20697.8 -19109 -7.41747 
462 1 17.3413 9.23938 2.99248 6.02522 -149699 -133813 -111464 16444.1 -4027.14 2153.31 -7.41235 
463 1 18.0098 7.98878 2.99301 6.00942 -147651 -136670 103087 30350.2 15001.9 -2723.28 -7.42621 
464 1 17.2605 6.78453 2.98832 6.01669 -150512 -138159 -85467.4 48442 -9714.38 420.632 -7.41366 
465 1 17.9282 5.5336 2.98681 5.9952 -150832 -135192 73457.1 61834.9 32551.2 -2134.48 -7.4241 
466 1 17.1776 4.32985 2.98159 6.00439 -148132 -144031 -50065.8 81075.2 -9398.06 -1239.57 -7.41537 
467 1 17.8439 3.0784 2.97919 5.9851 -147875 -136903 39018.3 94457.5 43415.2 -3668.51 -7.42142 
468 1 17.0921 1.87521 2.97501 5.99488 -143583 -145813 -19519.2 108773 -16495.1 -2519.02 -7.41695 
469 1 17.7572 0.62329 2.97423 5.98683 -143486 -142363 8269.35 114791 35018.5 -7858.79 -7.41891 
1079 2 9.07999 4.0077 6.46188 6.0206 -133776 -151965 -23662 -9097.28 5493.45 -6411.72 -7.41554 
1081 2 9.1669 1.5536 6.46619 6.01721 -141576 -145048 -11291 -23707.1 -4833.27 -7187.03 -7.41618 
1125 2 10.9986 10.2127 6.42867 6.01046 -81242.3 -205203 -42910.7 26135.3 15593.4 -5102.35 -7.41557 
1126 2 10.3287 8.96327 6.43649 6.00111 -109093 -186179 38320.2 1719.32 12801.4 -43333.7 -7.42076 
1127 2 11.0798 7.76052 6.43732 6.01002 -104293 -179268 -43205.7 7080.38 14095.4 -12012.7 -7.41541 
1128 2 10.4119 6.51 6.44582 6.01306 -135009 -161897 34796.6 -18160.4 20724.8 -34742 -7.42021 
1129 2 11.1633 5.3073 6.4467 6.01047 -124357 -158598 -35967.5 -11973.1 10785 -14945.5 -7.41554 
1130 2 10.497 4.0558 6.45435 6.01534 -146918 -144891 25163.1 -36198.4 25654.4 -25493.2 -7.41923 
1131 2 11.249 2.85334 6.45412 6.00923 -136681 -146920 -23633.4 -31522.3 1877.35 -15639.2 -7.41601 
1132 2 10.5839 1.6012 6.45958 6.01258 -146565 -138907 9630.86 -50128.4 23042.2 -17652.8 -7.4179 
1133 2 11.3364 0.398987 6.45664 6.00633 -142515 -141945 -6379.29 -42338.6 -14308.2 -16982.8 -7.41699 
1176 2 12.4162 10.2605 6.41992 5.9994 -95799 -196815 63630.4 2153.98 9216.05 -36896.8 -7.42316 
1177 2 13.1666 9.05721 6.42058 6.01825 -96637.8 -190348 -68456.8 3008.15 7913.01 -3664.25 -7.41449 
1178 2 12.4971 7.80763 6.42754 6.01093 -121384 -177630 57682.6 -21898.5 24814.7 -34162.1 -7.42249 
1179 2 13.2481 6.60455 6.42882 6.00971 -113150 -172535 -56374.2 -18005.9 6864.93 -13954.8 -7.41501 
1180 2 12.5804 5.35392 6.4371 6.01048 -139278 -157564 42061.7 -42935.8 34248.4 -31973.6 -7.42111 
1181 2 13.332 4.15111 6.43769 6.00162 -128647 -157312 -37675.7 -41908.3 4240.52 -21481.7 -7.41579 
1182 2 12.666 2.89951 6.44526 6.00543 -144977 -143591 21941.9 -62995 34436 -28217.2 -7.41939 
1183 2 13.4182 1.69699 6.44353 5.99619 -138217 -147457 -17791.5 -63572.2 -8890.16 -25191.8 -7.41676 
1184 2 12.7533 0.444829 6.4484 6.00291 -142306 -140323 760.383 -74572.4 23496.5 -23566.7 -7.41772 
1227 2 15.2543 10.3525 6.4102 6.02286 -107562 -178371 -97787.8 4509.78 2328.65 6027.47 -7.41306 
1228 2 14.5841 9.10321 6.41262 6.01178 -114232 -177122 88417.3 -17927.6 17553.3 -21016.8 -7.42507 
1229 2 15.3343 7.89959 6.41436 6.01736 -114705 -171815 -86677.7 -20644.2 -2478.09 -3634.74 -7.41364 
1230 2 14.6653 6.6496 6.41974 6.006 -130025 -163901 70507.1 -43825.5 33096.9 -23562 -7.42367 
1231 2 15.4163 5.44631 6.42154 6.00542 -126751 -163061 -59853.9 -48129 -2485.87 -14395.7 -7.41493 
1232 2 14.749 4.1954 6.42837 5.99786 -140008 -149923 43791.4 -70423.9 41499.3 -25841.7 -7.42155 
1233 2 15.5008 2.99245 6.42886 5.99462 -136048 -154448 -31474.7 -78340.1 -6311.27 -21805.9 -7.41628 
1234 2 14.8353 1.7407 6.43469 5.99408 -141894 -142535 16520.2 -93841.4 36657.1 -23473.6 -7.41931 
1235 2 15.5877 0.538003 6.43221 5.98839 -141772 -145974 -5908.28 -97427 -23621.4 -24328.5 -7.41778 
1278 2 16.6718 10.3984 6.40546 6.01541 -124679 -158633 110876 -3139.7 3390 -8126.42 -7.42675 
1279 2 17.4207 9.19415 6.40754 6.02403 -132785 -150524 -111477 -14470 -4787.89 661.517 -7.41235 
1280 2 16.7516 7.94404 6.40851 6.00875 -134061 -151923 99165.8 -32787.6 20160 -7590.05 -7.4259 
1281 2 17.5015 6.7401 6.41181 6.01364 -137969 -150929 -85524.9 -45087 -9720.94 -3768.55 -7.41367 
1282 2 16.8334 5.48947 6.41517 5.99607 -141808 -145169 70493.3 -63344.9 36018.3 -10513.6 -7.42384 
1283 2 17.5844 4.28594 6.4185 6.00155 -141718 -151231 -50039.3 -78322.3 -8767.09 -7821.08 -7.4154 
1284 2 16.9179 3.0346 6.42274 5.9875 -143678 -141020 37110.5 -95133.4 43544.9 -10202.9 -7.42122 
1285 2 17.6699 1.83151 6.42459 5.99237 -142005 -148563 -19185.5 -107547 -16660.4 -9809.18 -7.41701 
1286 2 17.0048 0.579605 6.42703 5.98922 -142301 -142515 7272.27 -115230 33777.8 -5829.71 -7.41879 
461 1 18.0896 10.444 2.99551 6.01876 -141057 -141033 115062 -18.0203 -0.144383 0.00739238 -7.42704 
512 1 19.507 10.3983 2.99248 6.02523 -123481 -159914 -111464 -1402.69 148.697 -4564.1 -7.41235 
513 1 20.1768 9.14864 2.99209 6.01358 -123053 -163382 102772 18692.3 14203.4 11556.6 -7.42615 
514 1 19.427 7.94468 2.98968 6.0189 -127570 -158444 -97858.3 27163.8 -7222.7 1773.57 -7.41306 
515 1 20.0959 6.69451 2.9864 6.00298 -134406 -154664 82085.5 47343.9 30524.4 14317.1 -7.42464 
516 1 19.3452 5.49092 2.98361 6.00658 -135370 -156070 -66062.1 57908.9 -7615.59 9028.98 -7.41464 
517 1 20.0126 4.24001 2.97855 5.99261 -141329 -145644 51018.7 77840.3 42095.9 16933.7 -7.42229 
518 1 19.261 3.03681 2.97665 5.99589 -139822 -152375 -33236.3 90668.7 -9722.54 14259.7 -7.41624 
519 1 19.9266 1.78514 2.97214 5.98954 -142126 -141880 20186 104898 39726.7 14455.6 -7.41977 
520 1 19.1743 0.582263 2.97285 5.98942 -142164 -146064 -5488.3 111025 -25346.8 15432.5 -7.41789 
563 1 22.3442 10.3069 2.98673 6.005 -101742 -188548 82311.9 2860.21 8661.14 26581.8 -7.42465 
564 1 21.5942 9.10325 2.98579 6.02116 -104434 -182040 -86616.8 4916.65 2191.36 -434.941 -7.41364 
565 1 22.2638 7.85371 2.98067 6.01144 -121282 -174754 73415.4 28759.8 26476.9 26388.8 -7.42385 
566 1 21.5131 6.65039 2.97902 6.0106 -116886 -170702 -68553.4 28843.1 346.025 11058.9 -7.41452 
567 1 22.1812 5.39993 2.97184 6.00426 -136556 -158110 52301.8 52852 37978.5 28394.2 -7.42215 
568 1 21.4297 4.19692 2.97087 5.9993 -130025 -159269 -42831.6 56579.7 -370.642 20694.3 -7.41569 
569 1 22.0959 2.9455 2.96368 5.99901 -142520 -145158 27026.5 77057 39219.2 27634.7 -7.42007 
570 1 21.3437 1.7428 2.96499 5.99158 -138339 -149639 -18382.7 81984.5 -12018.9 25700 -7.41693 
571 1 22.0087 0.49075 2.96024 5.9964 -141479 -141401 2687.82 91851.8 27390.2 23585.7 -7.41812 
614 1 23.7618 10.2599 2.97899 6.01639 -86240 -202111 -59773.2 -17903.7 10881.1 1156.47 -7.41487 
615 1 24.432 9.01076 2.97246 6.00373 -108756 -188050 53751.4 6617.51 16508.1 39229.4 -7.42219 
616 1 23.6812 7.80772 2.97146 6.01182 -103720 -181635 -56333.7 2439.96 10067.6 10548.1 -7.41499 
617 1 24.3496 6.55751 2.96317 6.01178 -133126 -166078 44771.5 27763.5 27748.5 34662.7 -7.42127 
618 1 23.5983 5.35465 2.96216 6.00702 -121951 -162697 -43241.1 23296.6 8528.99 17920.2 -7.41548 
619 1 24.2649 4.10337 2.95395 6.0111 -145232 -147924 29326 47205 32700.3 29567.6 -7.41989 
620 1 23.513 2.90079 2.95431 6.00165 -134781 -149997 -26542.9 45732.4 608.593 21839.9 -7.41617 
621 1 24.1782 1.64876 2.94809 6.00687 -145168 -139852 10241.3 62931.8 27707 23800.8 -7.41828 
622 1 23.4257 0.44642 2.95149 5.9983 -141765 -143179 -7122.65 59245.7 -17399.8 23908.3 -7.41726 
665 1 26.6007 10.1653 2.96353 5.99449 -92852 -198221 29674.4 -16684 7664.3 46608.5 -7.42015 
666 1 25.8494 8.9628 2.96287 6.00948 -92796.4 -190990 -37730.6 -20172.7 16700.9 9465.34 -7.41565 
667 1 26.5181 7.71267 2.95444 6.00762 -123724 -171351 31778 4486.32 13687 38569.7 -7.41997 
668 1 25.7668 6.51003 2.95357 6.01156 -116351 -166052 -35977.3 -2165.74 13225.1 12423.8 -7.4155 
669 1 26.4336 5.25886 2.9457 6.01541 -142664 -150602 28195.7 22793.3 19917.5 28014.9 -7.41942 
670 1 25.6819 4.05634 2.94518 6.0144 -132805 -150633 -28150.9 16893.2 7172.41 12296.1 -7.41566 
671 1 26.3475 2.80441 2.93897 6.01603 -147666 -140262 17728.1 39607.2 22625.1 18204.7 -7.41841 
672 1 25.5952 1.60214 2.9402 6.01153 -140760 -143462 -14370.2 32581.8 -5201.79 12382.1 -7.41633 
673 1 26.26 0.349853 2.93649 6.01467 -144802 -139783 1224.63 47640.5 17307.4 11974.7 -7.41709 
1330 2 18.8379 9.23894 6.40546 6.0154 -152771 -130534 110876 -13173.7 5341.99 6999.23 -7.42675 
1331 2 19.5865 8.03435 6.4102 6.02287 -156864 -129184 -97787.4 -32868.3 -6384.09 -997.009 -7.41306 
1332 2 18.9186 6.78339 6.4101 6.00285 -156663 -129839 88845.9 -43421.8 21559.1 8620.49 -7.4252 
1333 2 19.6683 5.57927 6.41609 6.01236 -153730 -136909 -65996.2 -64196.5 -8506.92 3752.52 -7.4146 
1334 2 19.0014 4.32798 6.41749 5.98924 -153708 -132501 55723.8 -75643.3 38821.9 9290.3 -7.42274 
1335 2 19.7525 3.12449 6.42351 6.00102 -146826 -143303 -33507.4 -94451.7 -10535.4 7054.68 -7.41615 
1336 2 19.0869 1.87271 6.42464 5.98397 -146932 -138295 22974.7 -103863 41598.1 12441.9 -7.42007 
1337 2 19.8392 0.669752 6.42871 5.99182 -142243 -143691 -6685.58 -112349 -23680.8 9928.55 -7.41771 
1381 2 21.6708 9.33009 6.41436 6.01736 -175530 -111116 -86677.3 -14299.7 4387.16 -328.689 -7.41364 
1382 2 21.0035 8.07858 6.41262 6.0118 -176931 -114514 88417.1 -18391.8 9424.29 25710.2 -7.42507 
1383 2 21.7521 6.87404 6.42058 6.01821 -164297 -122608 -68456.9 -41945.3 -782.564 8685.05 -7.41449 
1384 2 21.0853 5.62248 6.41992 5.99937 -169748 -123042 63631 -44866 27344.4 26430.5 -7.42316 
1385 2 21.8354 4.41871 6.42867 6.01047 -151738 -134912 -42911.8 -66671.9 -3378.32 16055.6 -7.41557 
1386 2 21.1695 3.16694 6.42852 5.98894 -156278 -132575 34492.7 -71869.1 39979.9 26248.7 -7.42079 
1387 2 21.9212 1.96393 6.43641 6.00092 -142670 -141264 -19515.7 -87003.5 -11490.4 19961.4 -7.41667 
1388 2 21.2562 0.711852 6.43485 5.98902 -145301 -141507 6498.65 -88646 32304.9 26687.2 -7.41858 
1432 2 23.0878 9.37574 6.41974 6.00601 -193360 -100736 70507.2 7112.05 3856.12 40444 -7.42367 
1433 2 23.8354 8.17092 6.42882 6.00976 -173378 -112379 -56374.6 -16543.4 8652.73 12923.3 -7.41502 
1434 2 23.169 6.91902 6.42754 6.01095 -182346 -116488 57682 -13541.3 17178.3 38571.1 -7.42249 
1435 2 23.9184 5.71515 6.43732 6.01006 -154340 -128988 -43206.1 -35921.5 3356.06 18213 -7.41541 
1436 2 23.2524 4.46329 6.43649 6.00111 -165407 -129756 38321.3 -34324.8 31126.7 32753 -7.42076 
1437 2 24.0035 3.2603 6.44572 6.00997 -142510 -139323 -26909.4 -53656.4 -2863.61 19615.4 -7.41596 
1438 2 23.3382 2.00824 6.44465 5.99723 -150168 -138070 15652.1 -53508.6 32813.4 27096.9 -7.41888 
1439 2 24.0905 0.805827 6.45165 6.00718 -140873 -140683 -9301.93 -65634.5 -14679.6 20157.3 -7.41688 
1483 2 25.9182 9.47026 6.43768 6.00164 -186567 -99461.5 -37675.5 8648.52 16482.9 14413.6 -7.41579 
1484 2 25.2523 8.21796 6.43709 6.01049 -190113 -106643 42061.8 13391.8 10566 45646.1 -7.42111 
1485 2 26.0012 7.01403 6.44669 6.01045 -160379 -122402 -35967.5 -8797.26 7551.22 16812.5 -7.41554 
1486 2 25.3354 5.76195 6.44582 6.01306 -170809 -126013 34797.3 -2614.44 19725.3 35319.3 -7.42021 
1487 2 26.0861 4.55896 6.45453 6.01535 -145606 -137345 -28373.9 -24672.3 509.47 14471.8 -7.41555 
1488 2 25.4205 3.30689 6.45372 6.00846 -154429 -136258 22112.5 -20691.3 25615.6 23534.6 -7.41898 
1489 2 26.1725 2.10453 6.46079 6.01768 -141828 -141969 -15691.6 -40670.5 -7495.99 11302.4 -7.41602 
1490 2 25.5075 0.852286 6.45925 6.00922 -145360 -140307 4132.94 -34299.7 19912.1 15484.6 -7.41755 
716 1 28.0182 10.1156 2.95508 6.00646 -80546 -201274 -18887.8 -34684.7 22678.2 2827.87 -7.41647 
717 1 28.687 8.86558 2.94691 6.00459 -110202 -177798 13820.7 -13398.3 5272.36 34655.6 -7.41844 
718 1 27.9353 7.66336 2.94588 6.01426 -106984 -175208 -24127.8 -18963.2 14791.8 5346.16 -7.4158 
719 1 28.6025 6.41234 2.93889 6.01453 -130996 -157922 20908.3 3573.14 7095.74 25818.1 -7.4186 
720 1 27.8507 5.21005 2.93817 6.02128 -126758 -159269 -23977 -2558.7 8005.16 4255.66 -7.41547 
721 1 28.5167 3.95836 2.93241 6.01914 -140709 -147007 21320.8 21788 14204.2 16865.3 -7.41834 
722 1 27.7644 2.75622 2.93249 6.02075 -137990 -150581 -16465.6 14584.5 215.894 4999.25 -7.41572 
723 1 28.4296 1.50407 2.92829 6.01799 -144757 -143317 11461.3 36603.9 16341.1 9958.36 -7.41741 
724 1 27.677 0.302042 2.93053 6.0171 -144483 -143393 -1385.77 23068.8 -9694.48 8298.72 -7.41667 
767 1 30.8565 10.0171 2.94335 6.00634 -105427 -178956 -6379.09 -20953 7552.83 20883.1 -7.41699 
768 1 30.1044 8.81515 2.94065 6.01337 -96702 -186008 -8406.34 -25198.3 18779.3 -4208.86 -7.41661 
769 1 30.7718 7.56428 2.93424 6.01451 -120530 -165756 6046.15 -9310.26 1736.18 19029.7 -7.41737 
770 1 30.0197 6.3623 2.93282 6.02242 -114592 -173540 -13194.4 -14810.9 9133.12 -2940.03 -7.41586 
771 1 30.6862 5.11093 2.92722 6.01844 -129726 -158058 15207.8 4492.02 8432.09 17731.3 -7.41768 
772 1 29.9338 3.90907 2.92648 6.02373 -127807 -166590 -13209 -161.776 3693.12 2628.97 -7.41557 
773 1 30.5994 2.65723 2.9212 6.01929 -136697 -153139 14392.1 22570.6 15420.3 16823 -7.41735 
774 1 29.8466 1.45548 2.9223 6.01889 -139684 -155369 -5112.05 13942.2 -3092.77 11644.9 -7.41601 
775 1 30.5112 0.203141 2.91852 6.01971 -146940 -147392 4157.47 32728.4 10000.4 13709.3 -7.41644 
818 1 32.2739 9.96649 2.94042 6.01259 -97470.6 -188059 9630.49 -21762.2 26808.6 -11128.8 -7.4179 
819 1 32.9412 8.71555 2.93381 6.01722 -123632 -162985 -11291.2 -13408.8 3807.53 7779.19 -7.41618 
820 1 32.1891 7.51363 2.93055 6.01794 -107064 -180460 2955.13 -18733.2 14294 -9137.23 -7.4169 
821 1 32.8558 6.26237 2.92483 6.01758 -129673 -161664 936.156 -9567.43 6459.71 12664.1 -7.41656 
822 1 32.1034 5.06062 2.92237 6.0222 -116928 -177965 -2549.34 -13306.2 10836.2 -1679.94 -7.4161 
823 1 32.7694 3.80902 2.91591 6.01714 -133744 -159386 6815.91 2409.89 16865.4 18895.2 -7.41666 
824 1 32.0164 2.60755 2.91482 6.01819 -129404 -169387 -4659.64 -253.014 6538.52 12703.5 -7.41572 
825 1 32.6813 1.35533 2.90898 6.01937 -141315 -153324 3404.77 17524.6 13292.2 21386 -7.41619 
826 1 31.9282 0.153829 2.91148 6.01563 -146799 -149362 438.513 8632.14 -3643.8 24166 -7.41607 
860 1 35.1099 9.86735 2.93812 6.02063 -139490 -146208 -23662 -12511.9 8298.94 -1551.54 -7.41554 
861 1 34.3584 8.66504 2.93279 6.01825 -114509 -172870 17738.4 -15197.6 20951.8 -8658.64 -7.4181 
862 1 35.0248 7.41353 2.92683 6.02169 -143630 -149800 -12335.9 -14794.6 4713.18 2791.33 -7.41569 
863 1 34.273 6.21146 2.92243 6.01898 -118658 -171887 11074.2 -18693.3 18595.8 -6254.59 -7.41712 
864 1 34.939 4.95974 2.91579 6.01713 -146540 -151079 -3357.06 -13764.8 15154.8 8972.08 -7.41589 
865 1 34.1865 3.75808 2.91148 6.01793 -126428 -169633 1965.86 -13443.1 19783.9 3676.05 -7.4161 
866 1 34.8515 2.50585 2.90455 6.01743 -146248 -150162 -2589.98 -2151.04 18913.1 12976 -7.41571 
867 1 34.0983 1.30458 2.9029 6.01764 -139120 -157701 -4414.56 -2198.77 8340.89 15785.5 -7.41554 
868 1 34.7622 0.051737 2.89931 6.02298 -147583 -148108 -5880.52 6107.54 991.468 12753.4 -7.41542 
1534 2 27.3351 9.5193 6.44525 6.00544 -198535 -90194 21941.9 31980.7 7218.7 43931.1 -7.41939 
1535 2 28.0836 8.31523 6.45412 6.00925 -171680 -111909 -23633.7 11374.4 12605.5 9445.37 -7.41601 
1536 2 27.4182 7.06277 6.45435 6.01534 -176685 -115112 25163.2 18962.9 9250.66 34963.9 -7.41923 
1537 2 28.1684 5.85965 6.46188 6.02062 -155361 -130443 -23661.9 -3249.91 2805.89 7963.6 -7.41554 
1538 2 27.5031 4.60734 6.4614 6.01774 -160905 -128796 24172.2 3091.29 13626.3 22928 -7.41882 
1539 2 28.2544 3.40482 6.46781 6.02464 -149872 -139834 -17598 -21509.3 -2939.21 5590.2 -7.41554 
1540 2 27.5895 2.15247 6.46691 6.01563 -150793 -136206 14806.5 -14831.4 15679 13799.7 -7.41791 
1541 2 28.3417 0.950318 6.4717 6.02141 -147658 -142801 -4384.85 -36840.9 -10210.7 5999.03 -7.41624 
1585 2 30.1654 9.61807 6.45664 6.00636 -178714 -105691 -6379.33 21438.7 21861.4 -3900.09 -7.41699 
1586 2 29.5005 8.36529 6.45958 6.01258 -184225 -101228 9630.75 28377.7 3766.55 28781.5 -7.4179 
1587 2 30.2502 7.16196 6.46619 6.01719 -164760 -121923 -11291.1 10358.8 8640.67 -592.076 -7.41618 
1588 2 29.5854 5.90931 6.46721 6.01824 -171465 -115946 17738.5 17606.7 2977.43 22474.1 -7.4181 
1589 2 30.336 4.70648 6.47317 6.02168 -160993 -132378 -12336.1 -4708.68 4774.02 2686.17 -7.41569 
1590 2 29.6714 3.45383 6.47323 6.01982 -162431 -125228 18474.4 597.731 8035.44 19278.6 -7.41788 
1591 2 30.423 2.25144 6.47896 6.02259 -156872 -140312 -7214.52 -23977.7 341.178 8062.57 -7.41573 
1592 2 29.7587 0.99881 6.4775 6.01708 -151853 -138813 8621.74 -14418.1 9211.43 17584.2 -7.41702 
1636 2 31.5824 9.66846 6.45935 6.01337 -185495 -97254.7 -8406.45 26080.2 5744.69 18368.1 -7.41661 
1637 2 32.332 8.46505 6.46576 6.0145 -162548 -123812 6046.27 14927.5 17348.3 -8011.08 -7.41737 
1638 2 31.6672 7.21232 6.46944 6.01794 -178315 -109222 2955.31 22405.1 -765.944 16947.5 -7.4169 
1639 2 32.4175 6.00932 6.47517 6.0176 -161909 -129426 936.283 9062.08 14197.4 -737.642 -7.41656 
1640 2 31.7529 4.75652 6.47757 6.01899 -174723 -115736 11074.3 13636 3881.8 19231.9 -7.41711 
1641 2 32.504 3.55389 6.4842 6.01714 -161865 -135779 -3357.47 -4922.64 15347.2 8638.32 -7.41589 
1642 2 31.8399 2.30097 6.48505 6.01937 -164434 -127893 9234.53 -1582 9279.29 24765.6 -7.41678 
1643 2 32.5922 1.09896 6.49107 6.01659 -153446 -144453 -2515.84 -19092.8 4315.3 17238.4 -7.41573 
1687 2 34.4142 9.76774 6.46111 6.01452 -148039 -140705 20908.3 13459.5 25906.4 -6764.67 -7.4186 
1688 2 33.749 8.51539 6.46717 6.02241 -171620 -116423 -13194 18189.6 2020.15 9379.28 -7.41586 
1689 2 34.4994 7.31251 6.47277 6.01845 -147097 -140691 15207.4 14500.7 19571.8 -1563.24 -7.41768 
1690 2 33.8344 6.06003 6.47763 6.0222 -174168 -120657 -2548.96 19726.6 3963.29 10224.5 -7.4161 
1691 2 34.5853 4.85743 6.48409 6.01715 -150868 -142312 6815.61 12231.6 24796.7 5158.54 -7.41666 
1692 2 33.9209 3.60469 6.48852 6.01791 -170514 -125622 1965.78 11890.5 13075.7 15295.6 -7.4161 
1693 2 34.6728 2.40267 6.49545 6.01745 -150998 -145305 -2589.91 600.871 20693.9 9891.22 -7.41571 
1694 2 34.0091 1.14966 6.49708 6.02238 -156261 -139218 -2239.15 943.055 9193.83 19880.7 -7.41571 
1733 2 35.8313 9.81766 6.46183 6.02128 -153255 -132613 -23977 12847.2 7687.74 4804.34 -7.41547 
1734 2 35.9165 7.36319 6.47352 6.02371 -157014 -137347 -13208.9 16773.9 4123.29 1883.75 -7.41557 
1735 2 36.0023 4.90878 6.48518 6.01821 -159622 -139247 -4659.37 17214.2 14270.8 -688.478 -7.41572 
1736 2 36.0898 2.45434 6.4971 6.01768 -154960 -141989 -4414.65 6919.41 17841.3 -668.498 -7.41554 
44 1 1.41686 20.8424 2.99246 6.02405 -158601 -124718 -111477 408.591 -1821.52 -4477.37 -7.41235 
45 1 0.669445 19.6374 2.99454 6.01543 -147468 -135853 110876 -16192 8733.23 1126.6 -7.42675 
46 1 1.33839 18.3869 2.9898 6.02287 -164452 -121382 -97788 -28466.6 -4055.8 -5029.98 -7.41306 
47 1 0.591583 17.1818 2.98738 6.01178 -145940 -145381 88417.8 -36085.3 26977.6 -4693.43 -7.42507 
48 1 1.26046 15.9312 2.97942 6.01824 -169456 -117403 -68457.5 -39100.4 7130.15 -5019.72 -7.41449 
49 1 0.513046 14.7266 2.97246 6.01095 -144574 -154154 57682.5 -35144.3 41992.8 -4408.14 -7.42249 
50 1 1.1809 13.4757 2.96268 6.00998 -166505 -116827 -43205.6 -29000.2 17450.9 -6200.03 -7.41541 
51 1 0.431891 12.2719 2.95418 6.01306 -139451 -157418 34796.1 -20572.8 40450.2 -577.3 -7.42021 
52 1 1.09837 11.0203 2.94547 6.01543 -160819 -122169 -28374.5 -15928.1 12787.5 -6795.01 -7.41555 
96 1 2.83406 20.7968 2.99149 6.00873 -175814 -110255 99165.9 -8592.15 3506.57 21253.4 -7.42591 
97 1 3.50174 19.5454 2.98819 6.01366 -186869 -102143 -85526.1 -17001.7 -8123.72 -6534.25 -7.41367 
98 1 2.75571 18.3398 2.9899 6.0028 -173972 -112350 88847.3 -33272.3 18244.9 14359.9 -7.4252 
99 1 3.42364 17.0884 2.98391 6.01235 -196710 -93779 -65997 -39469.8 -1003.61 -9243.28 -7.4146 
100 1 2.67774 15.8829 2.98008 5.99938 -173540 -119191 63631.4 -42537.7 36561.5 10466.1 -7.42316 
101 1 3.34515 14.6314 2.97133 6.01045 -196909 -89676.3 -42911.8 -40662.2 12215.7 -10953.2 -7.41557 