ITEM: TIMESTEP
0
ITEM: NUMBER OF ATOMS
1736
ITEM: BOX BOUNDS pp pp pp
0.0000000000000000e+00 3.6179139200000002e+01
0.0000000000000000e+00 6.2664107199999997e+01
0.0000000000000000e+00 1.5000000000000000e+01
ITEM: ATOMS id type x y z c_csym c_2[1] c_2[2] c_2[3] c_2[4] c_2[5] c_2[6] c_3 
53 1 0.333 9.818 3 6.02172 -124516 -136575 -32574 32383 37219.2 3289.63 -7.4175 
54 1 1 8.567 3 6.02492 -116422 -147448 -97782.9 -3521.01 5237.09 -5548.92 -7.41445 
55 1 0.25 7.364 3 6.0215 -131922 -145656 -54304.2 -18890.6 32568.5 -1890.13 -7.41673 
56 1 0.917 6.112 3 6.02221 -162050 -112664 -98463.4 -23207.6 17398.7 -4195.94 -7.41478 
57 1 0.167 4.909 3 6.0253 -140416 -178506 -83287.2 579.771 42881 -4974.38 -7.41521 
58 1 0.834 3.658 3 6.02228 -157613 -137148 -107887 10727.8 33584.2 -7490.07 -7.41414 
59 1 0.083 2.455 3 6.02156 -125134 -118284 -113914 -5458.11 36684.5 -2749.55 -7.41362 
60 1 0.75 1.203 3 6.02299 -148624 -125268 -122667 -21299 18745.1 -12213.6 -7.41327 
61 1 0 0 3 6.02855 -146948 -157878 -126587 -4295.21 -11.1501 -0.230991 -7.4131 
105 1 3.168 9.722 3 6.02678 -163207 -142992 -86452.1 -4289.1 6695.46 -15048.2 -7.41585 
106 1 2.418 8.519 3 6.02063 -95227.5 -160862 -51093.4 -5196.32 29783.7 10185.5 -7.41698 
107 1 3.084 7.267 3 6.02042 -118481 -131649 -84411.9 -12684.3 3291.85 -15428.5 -7.41504 
108 1 2.334 6.064 3 6.02688 -148436 -174878 -73162.5 6204.73 33091 -2853.08 -7.41598 
109 1 3.001 4.813 3 6.02798 -170263 -153550 -86384.5 -7612.13 17258.3 -22683.6 -7.41518 
110 1 2.251 3.61 3 6.02192 -139727 -138710 -99798.2 -11012.5 38889.8 -17540.3 -7.41452 
111 1 2.918 2.358 3 6.02088 -144592 -107651 -99368 -12159.1 22285.9 -35789 -7.41451 
112 1 2.167 1.155 3 6.02226 -141615 -146661 -117171 18040.6 17116.9 -27905 -7.4136 
156 1 4.585 9.674 3 6.02913 -149453 -169093 -56499.3 3209.73 32028.6 14703 -7.4172 
157 1 5.252 8.423 3 6.022 -155801 -119234 -65343.5 8336.63 2782.75 -27014.1 -7.41636 
158 1 4.502 7.219 3 6.02069 -96943 -157994 -75826.3 36701.9 19865.6 6312.56 -7.41516 
159 1 5.168 5.968 3 6.02293 -126332 -170736 -61822.3 235.939 4698.84 -26313.6 -7.41661 
160 1 4.418 4.765 3 6.02196 -139467 -133945 -92640.1 -8230.03 21859.5 -8342.73 -7.41523 
161 1 5.085 3.513 3 6.02192 -156906 -125782 -67835.6 -29064.9 14413.9 -33267 -7.4161 
162 1 4.335 2.31 3 6.02621 -149134 -171744 -103144 12091.3 16537.8 -24657.4 -7.41446 
163 1 5.002 1.059 3 6.02279 -147116 -146882 -84845.1 3917.55 12597.5 -40507.5 -7.41518 
207 1 7.419 9.578 3 6.02317 -158992 -129221 -40393.2 14000.2 10549.3 -44979.7 -7.41732 
208 1 6.669 8.374 3 6.02075 -137142 -133478 -80646.3 21528.5 18881.9 1469.53 -7.41534 
209 1 7.336 7.123 3 6.02913 -167550 -158596 -39940.9 -12544 8318.23 -37209 -7.41802 
210 1 6.586 5.92 3 6.02413 -93933.8 -168344 -94576.7 6759.26 8217.74 -2166.1 -7.41482 
211 1 7.253 4.669 3 6.02057 -146221 -114298 -42990.6 13883.6 13564.8 -29037.2 -7.41726 
212 1 6.502 3.465 3 6.02072 -129254 -119674 -99102.6 43037.7 4341.79 -8913.68 -7.41441 
213 1 7.169 2.214 3 6.02683 -161765 -164480 -58128.8 -13413.7 17820 -25779.4 -7.41663 
214 1 6.419 1.011 3 6.02122 -142262 -127502 -90370.4 -8150.01 -5935.76 -17406.9 -7.41532 
258 1 8.836 9.53 3 6.02059 -133659 -112562 -79195.3 5917.72 24833.9 -11669.7 -7.41545 
260 1 8.753 7.075 3 6.02913 -146353 -159304 -93775.6 6821.27 9764.49 -12286.2 -7.41523 
262 1 8.67 4.62 3 6.02075 -134010 -133463 -98811.9 22998.4 186.215 -9589.13 -7.41423 
264 1 8.586 2.166 3 6.02197 -130176 -111928 -91077.7 5844.46 -8351.28 -8561.36 -7.41507 
874 2 0.417 8.615 6.4 6.02646 -145497 -176435 -43190.3 1538.01 31867.9 2660.29 -7.41749 
875 2 0.5 6.161 6.4 6.02223 -136135 -141787 -67690.1 19584.2 35992.1 4153.71 -7.41585 
876 2 0.584 3.706 6.4 6.02169 -136125 -149945 -99570.5 -9604.57 42068.6 -1448.7 -7.41488 
877 2 0.667 1.251 6.4 6.02491 -142683 -132161 -122580 -14861.5 20017.1 -10220.1 -7.41293 
878 2 0 0 6.4 6.02853 -146625 -158077 -126580 1182.69 13.106 -22.4144 -7.41311 
921 2 2.501 9.915 6.4 6.022 -140808 -145235 -40071.2 22950 36368.6 11470.7 -7.41755 
922 2 1.834 8.663 6.4 6.022 -156383 -110806 -94332.8 20874.9 5931.52 -5953.35 -7.41494 
923 2 2.584 7.46 6.4 6.02701 -145675 -177725 -61798.1 4948.26 25064.7 9123.7 -7.41661 
924 2 1.917 6.209 6.4 6.02072 -150846 -102190 -92771.8 -31664.6 18101.9 -14825.1 -7.41472 
925 2 2.668 5.005 6.4 6.0205 -126411 -127643 -86400.1 -19706.4 28338.6 -3539.09 -7.41511 
926 2 2.001 3.754 6.4 6.02758 -165464 -152664 -99808.7 -218.101 34608.5 -24853.4 -7.41502 
927 2 2.751 2.551 6.4 6.02672 -141706 -135323 -107860 29890 23316.2 -25341.2 -7.41417 
928 2 2.084 1.299 6.4 6.02243 -152595 -124137 -114006 16131.5 20679.8 -30492.4 -7.41363 
929 2 2.834 0.096 6.4 6.02648 -151898 -164162 -112472 10230.1 -1646.05 -39623.4 -7.41378 
972 2 3.918 9.963 6.4 6.0244 -156814 -117474 -80816.5 -15280.6 8164.67 -17083.4 -7.4151 
973 2 4.668 8.759 6.4 6.01942 -133742 -143269 -65279.3 -7309.97 24844.4 11121.5 -7.41614 
974 2 4.001 7.508 6.4 6.02199 -155638 -133671 -75802 -14183.6 4483.83 -20330.1 -7.4161 
975 2 4.752 6.305 6.4 6.02199 -132920 -155329 -84692.6 -1947.53 14980.8 4775.58 -7.41572 
976 2 4.085 5.054 6.4 6.01942 -157193 -124763 -73330.8 -19448.1 19032 -27350 -7.41566 
977 2 4.835 3.85 6.4 6.02475 -139371 -140103 -98181 -3858.82 12241.8 -13126.8 -7.41443 
978 2 4.168 2.599 6.4 6.02931 -166513 -158286 -83380.2 -6314.21 25799.4 -34633.2 -7.41533 
979 2 4.918 1.396 6.4 6.02192 -92702.4 -137667 -99588.6 32896.1 2011.74 -33486.4 -7.41428 
980 2 4.251 0.144 6.4 6.02088 -136376 -111303 -98806.5 -5706.84 7106.05 -34973 -7.41459 
1023 2 6.752 10.059 6.4 6.02683 -148124 -166283 -66205.9 11363.4 31037.4 2465.98 -7.41664 
1024 2 6.085 8.808 6.4 6.0205 -148163 -106768 -56605.4 -28656.1 3270.82 -35127.7 -7.41639 
1025 2 6.836 7.604 6.4 6.0205 -125359 -119150 -86517.7 -16245.6 16373.3 1729.74 -7.41482 
1026 2 6.169 6.353 6.4 6.02683 -167946 -154897 -51034.1 -5794.77 6118.4 -30779.7 -7.41741 
1027 2 6.919 5.15 6.4 6.02672 -136426 -130736 -97893.1 31504.8 7486.62 -1719.52 -7.41474 
1028 2 6.252 3.898 6.4 6.02188 -160715 -123068 -54243.1 9093.65 17816 -27319.2 -7.41682 
1029 2 7.002 2.695 6.4 6.02293 -105613 -185132 -96694.1 1831.68 -451.422 -12087.4 -7.41458 
1030 2 6.336 1.444 6.4 6.02294 -117638 -182017 -70841.3 -20735.4 18688.7 -23693.9 -7.41589 
1031 2 7.086 0.241 6.4 6.02143 -144455 -126115 -80444.1 34584.6 -11519.9 -21947.9 -7.41573 
1074 2 8.169 10.107 6.4 6.02199 -157459 -144216 -29400.5 -10111.2 8830.1 -52740.5 -7.41867 
1075 2 8.92 8.904 6.4 6.02319 -136115 -148298 -82964.3 427.754 22244.7 -10126.7 -7.41565 
1076 2 8.253 7.653 6.4 6.01942 -158477 -130748 -28906.5 -20992.5 8326.68 -46156.3 -7.41824 
1077 2 9.003 6.449 6.4 6.02451 -134309 -133324 -95838.8 -6727.01 13705.6 -8704.49 -7.41451 
1078 2 8.336 5.198 6.4 6.02688 -172135 -157268 -32608 -10251.2 15794.5 -33931.9 -7.41838 
1080 2 8.42 2.743 6.4 6.02042 -114981 -144448 -47155.5 -4164.55 22651.8 -21490.1 -7.41698 
1082 2 8.503 0.289 6.4 6.02762 -156238 -160333 -70736.9 -12544.7 18710 -12399.1 -7.41595 
259 1 9.503 8.278 3 6.02557 -161467 -131997 -11512.2 -25701.8 15752.3 -53575.4 -7.41949 
261 1 9.42 5.824 3 6.022 -161319 -133136 -20767.9 -1073.82 22233.3 -39994.4 -7.41851 
263 1 9.337 3.369 3 6.02218 -153860 -146026 -36830.3 -1859.57 27901.3 -25863.8 -7.4183 
265 1 9.253 0.914 3 6.02269 -145981 -128887 -61393.4 -29402.6 23481.8 -16363.3 -7.41631 
309 1 11.671 9.433 3 6.02059 -154995 -121004 29281.1 -8495.62 12389.1 -55222.6 -7.42187 
310 1 10.92 8.23 3 6.02218 -140790 -147492 -90220.6 25653.7 14883.1 -19423.4 -7.41505 
311 1 11.587 6.979 3 6.02317 -162161 -142536 13049.3 10056 24898 -50005.9 -7.42066 
312 1 10.837 5.775 3 6.022 -135439 -132423 -94497.4 23390.8 5611.75 -20689 -7.41456 
313 1 11.504 4.524 3 6.02913 -166166 -168912 -10448.3 -14223.6 36723.6 -38756 -7.41988 
314 1 10.754 3.321 3 6.02798 -142125 -165423 -89985.1 7728.72 -3483.05 -18129 -7.41528 
315 1 11.421 2.07 3 6.0205 -137985 -120781 -38756.2 16925.5 37148.9 -28042 -7.41768 
316 1 10.67 0.866 3 6.02096 -131746 -113641 -74043.6 38731.3 -16692.2 -17534.9 -7.41544 
360 1 13.088 9.385 3 6.02568 -151455 -170443 -95424.4 12334.4 11833.5 -9057.32 -7.41467 
361 1 13.755 8.134 3 6.02303 -163046 -161555 57646.8 9880.09 15662.2 -40223.6 -7.42345 
362 1 13.004 6.931 3 6.02059 -130064 -118858 -93671.4 5891.26 6400.96 -18775.7 -7.41463 
363 1 13.671 5.679 3 6.02197 -111628 -144424 29162.8 -25925.3 33213 -39446 -7.42147 
364 1 12.921 4.476 3 6.02913 -147299 -167231 -85162.2 9396.08 1974.62 -24558.3 -7.41539 
365 1 13.588 3.225 3 6.02475 -154847 -144029 -5797.4 9045.94 44161.7 -36733.9 -7.41932 
366 1 12.838 2.021 3 6.01996 -134469 -139903 -71343.5 22349 -9208.13 -26999.3 -7.4158 
367 1 13.505 0.77 3 6.02202 -139777 -153882 -39810.8 6674.48 35352.4 -34308.4 -7.41805 
411 1 15.922 9.289 3 6.02683 -172989 -179527 95616.9 -1128.08 5308.69 -17835.2 -7.42551 
412 1 15.172 8.086 3 6.02191 -140741 -134427 -106230 -9562.61 -489.287 -4387.07 -7.41435 
413 1 15.839 6.834 3 6.02196 -163010 -143040 71468.1 -21355.1 21804.9 -21465 -7.42429 
414 1 15.089 5.631 3 6.02293 -105186 -191496 -87961.3 17878.3 -1833.04 -14060.6 -7.41508 
415 1 15.755 4.38 3 6.02293 -124000 -198387 33739.4 7837.73 40241.8 -24448 -7.42158 
416 1 15.005 3.177 3 6.02188 -139531 -139221 -68028.3 -12252.2 -4895.96 -20907.1 -7.41627 
417 1 15.672 1.925 3 6.02278 -148532 -144791 -6588.08 -23690.1 43241.3 -28177.4 -7.4195 
418 1 14.922 0.722 3 6.02736 -147378 -173017 -45904.2 3309.4 -20688.3 -26143.7 -7.41753 
462 1 17.339 9.241 3 6.02199 -133296 -113932 -122970 -3242.47 -4028.99 1612.58 -7.41331 
463 1 18.006 7.989 3 6.02192 -162756 -147626 96937.7 -19089.7 14878.7 -878.331 -7.42529 
464 1 17.256 6.786 3 6.02798 -150894 -172353 -101734 1247.15 -8525.88 -167.519 -7.41439 
465 1 17.923 5.535 3 6.02688 -168674 -180656 63812.4 -773.353 33508.7 -398.011 -7.42366 
466 1 17.173 4.332 3 6.02042 -98723 -159557 -74091.6 -5142.71 -7052.03 -1923.89 -7.41577 
467 1 17.839 3.08 3 6.01892 -108056 -165391 21562.2 -10150.6 44834.8 -2746.49 -7.42102 
468 1 17.089 1.877 3 6.02705 -147824 -179908 -48275.2 1961.36 -14618.2 -4578.59 -7.41749 
469 1 17.756 0.626 3 6.02647 -148813 -180625 -17057.3 1759.98 35287.2 -8367.13 -7.41905 
1079 2 9.086 3.995 6.4 6.01892 -91951.2 -146175 -97578.1 20546.4 4196.86 -7845.57 -7.41468 
1081 2 9.17 1.54 6.4 6.02705 -148815 -163433 -84909 11974.5 -9609.48 -10607.3 -7.41549 
1125 2 11.004 10.203 6.4 6.022 -144160 -134172 -79857.4 1301.63 18741.9 -10433.4 -7.41537 
1126 2 10.337 8.952 6.4 6.02683 -170982 -164747 4426.09 -1007.19 14366 -54594.6 -7.42104 
1127 2 11.087 7.749 6.4 6.02557 -136749 -134181 -91352.1 31333.5 17050.3 -16229.4 -7.41484 
1128 2 10.42 6.497 6.4 6.02184 -154307 -115574 -6091.92 -2631.66 23376.4 -47242.7 -7.41975 
1129 2 11.171 5.294 6.4 6.02228 -133427 -151541 -93811.4 -1433.21 11311.1 -18240.7 -7.41471 
1130 2 10.504 4.043 6.4 6.02413 -118262 -169573 -23942.7 -9132.48 30914.2 -35511.2 -7.41827 
1131 2 11.254 2.84 6.4 6.02191 -136603 -131207 -86155.5 29127.6 -1493.65 -19090.6 -7.41518 
1132 2 10.587 1.588 6.4 6.02243 -151895 -129155 -48949.2 9901.28 28810.9 -23752.5 -7.41719 
1133 2 11.337 0.385 6.4 6.02648 -148094 -165808 -66909.8 11623.8 -21654.5 -21608.1 -7.41614 
1176 2 12.421 10.252 6.4 6.02075 -163929 -142221 46804.8 -12015.5 9470.42 -42507.9 -7.42257 
1177 2 13.171 9.048 6.4 6.02317 -140784 -141071 -96164.3 -5017.86 10515.9 -7413.47 -7.41429 
1178 2 12.504 7.797 6.4 6.02218 -164880 -155561 34018.6 -16892.5 26272.7 -44143 -7.42232 
1179 2 13.255 6.594 6.4 6.02059 -127949 -120128 -93127.4 17425 8880.15 -18443.2 -7.41482 
1180 2 12.588 5.342 6.4 6.02192 -159981 -139185 10358.2 12173.3 38796.4 -43501.2 -7.42082 
1181 2 13.338 4.139 6.4 6.02913 -146034 -172039 -82841.9 11095 3452.05 -27202.9 -7.41532 
1182 2 12.671 2.888 6.4 6.02913 -163387 -171501 -19418.7 -5789.18 40723.2 -38140.1 -7.4189 
1183 2 13.421 1.685 6.4 6.02192 -137240 -139653 -66017.4 25656.6 -13091.9 -31915.2 -7.41615 
1184 2 12.754 0.433 6.4 6.02088 -133621 -115495 -48995.7 -4100.1 27790.5 -30969.7 -7.41717 
1227 2 15.255 10.348 6.4 6.022 -143996 -132304 -112602 27068.4 3086.9 4811.3 -7.41383 
1228 2 14.588 9.096 6.4 6.02059 -155779 -127227 77921.6 4768.69 16427 -25025 -7.4244 
1229 2 15.339 7.893 6.4 6.02228 -139175 -155595 -105939 -4061.05 -793.283 -5785.98 -7.41415 
1230 2 14.672 6.642 6.4 6.02567 -170028 -180709 54949.3 -2630.1 34408.8 -31113.4 -7.42323 
1231 2 15.422 5.439 6.4 6.02191 -140757 -139817 -86995.2 28300.1 -1786.25 -18696.1 -7.41509 
1232 2 14.755 4.187 6.4 6.022 -157238 -143063 20076 15745 45707.5 -34963.6 -7.42118 
1233 2 15.505 2.984 6.4 6.02413 -97816.7 -178985 -64899.5 6447.37 -7476.7 -27853.5 -7.41623 
1234 2 14.838 1.733 6.4 6.02073 -137588 -131516 -15981.6 -34280.3 40418.2 -32003.6 -7.41867 
1235 2 15.589 0.529 6.4 6.02096 -126545 -128397 -40376.5 -22014.1 -25983.5 -30569.6 -7.41756 
1278 2 16.672 10.396 6.4 6.02228 -162951 -164229 105456 -12763.7 2180.66 -8133.51 -7.42589 
1279 2 17.423 9.193 6.4 6.02059 -132880 -114365 -122888 8122.79 -4432.69 428.828 -7.41331 
1280 2 16.756 7.941 6.4 6.02192 -162207 -146932 91987.6 18534.9 19230.4 -10448 -7.42518 
1281 2 17.506 6.738 6.4 6.02798 -152020 -170258 -101580 4089.43 -8687.57 -4920.37 -7.41454 
1282 2 16.839 5.487 6.4 6.02215 -160596 -148709 59277.3 -18110.2 37051 -14861.6 -7.42314 
1283 2 17.589 4.283 6.4 6.01817 -95883.1 -163922 -73532.2 -23740.3 -7596.74 -10015.1 -7.41568 
1284 2 16.923 3.032 6.4 6.02294 -114619 -199470 18251.6 -8246.96 45540.2 -14827.2 -7.42119 
1285 2 17.673 1.829 6.4 6.02677 -145676 -179431 -47090.6 2788.37 -15950 -11618.6 -7.41795 
1286 2 17.006 0.578 6.4 6.02182 -139430 -148162 -19476.5 -16155 34071.4 -9511.66 -7.41859 
461 1 18.09 10.444 3 6.02218 -162159 -160931 110106 11011.7 -121.196 -67.8433 -7.42663 
512 1 19.507 10.396 3 6.02798 -150660 -164438 -122875 -6630.87 449.035 -4120.21 -7.4136 
513 1 20.174 9.145 3 6.0205 -151938 -131992 95881.9 27572 12702.4 13486.2 -7.42531 
514 1 19.423 7.941 3 6.02072 -131625 -123046 -112334 25846 -6256.02 2739.88 -7.41352 
515 1 20.09 6.69 3 6.02683 -170969 -180138 71483.5 1099.71 30680.4 19254.2 -7.42416 
516 1 19.34 5.487 3 6.02191 -141129 -140080 -87308.4 -24661.8 -6681.56 11835.8 -7.41524 
517 1 20.007 4.235 3 6.02192 -156625 -145976 34194.2 -17623.5 44659.9 23206 -7.42185 
518 1 19.257 3.032 3 6.02413 -97708 -183979 -60797.8 -3754.27 -9514.36 18127.5 -7.41625 
519 1 19.924 1.781 3 6.0223 -145130 -166495 -5104.93 14802.2 41771.5 20447.6 -7.41954 
520 1 19.173 0.578 3 6.02143 -129064 -127223 -34355.2 -8803.88 -25831 18504.9 -7.41803 
563 1 22.341 10.3 3 6.02475 -166787 -145844 71543.5 15272.1 7722.32 29578.7 -7.42372 
564 1 21.591 9.096 3 6.01942 -138187 -139818 -106332 3768.06 4118.6 1787.11 -7.41401 
565 1 22.258 7.845 3 6.02208 -162544 -157889 57553.1 13828.8 26783 33689.6 -7.42395 
566 1 21.507 6.642 3 6.02199 -129141 -121712 -95557.2 -15800.7 1873.91 14904.9 -7.41474 
567 1 22.174 5.39 3 6.02192 -160114 -143591 29068.1 -14232.1 41648.6 38379.3 -7.42169 
568 1 21.424 4.187 3 6.02913 -147215 -175550 -77862.5 -9574.24 -782.513 26548.3 -7.41565 
569 1 22.091 2.936 3 6.02913 -162388 -176125 -5312.59 3451.67 44527.8 37339.3 -7.41965 
570 1 21.341 1.733 3 6.02192 -136621 -143753 -57322.4 -23967.7 -14709.7 32665.4 -7.41679 
571 1 22.008 0.481 3 6.02088 -132720 -120478 -37803.3 2164.36 30287.6 31829.2 -7.41779 
614 1 23.758 10.252 3 6.02196 -146296 -131620 -87854.2 -31908.1 13041 5462.73 -7.41522 
615 1 24.425 9 3 6.02557 -163890 -136992 29300.5 -16853.8 17615.8 48508.6 -7.42205 
616 1 23.675 7.797 3 6.02798 -145563 -169082 -93663.3 -14546.2 12896.9 14977.2 -7.41518 
617 1 24.342 6.546 3 6.0205 -151155 -123442 13240.8 33820.5 30885.2 46563 -7.42092 
618 1 23.591 5.342 3 6.02072 -126235 -123702 -90071.7 18904.5 9336.29 22652.6 -7.41459 
619 1 24.258 4.091 3 6.02413 -119133 -170977 -11544.6 7004.23 38572.3 40475 -7.41919 
620 1 23.508 2.888 3 6.02192 -136710 -135022 -79089.8 -28170.1 -2296.87 27311 -7.41556 
621 1 24.175 1.636 3 6.02243 -150790 -132599 -40294.2 -11887.7 33660.5 31633.1 -7.4177 
622 1 23.425 0.433 3 6.02648 -147149 -169674 -59079.2 -9608.97 -23794.9 30247 -7.41658 
665 1 26.593 10.155 3 6.02059 -152981 -114532 -5831.63 -6736.63 9641.87 56626.2 -7.41971 
666 1 25.842 8.952 3 6.02303 -140529 -148380 -85231.3 376.527 20213.7 13989.2 -7.41529 
667 1 26.509 7.701 3 6.02317 -162730 -135915 -10382.3 23933 15260.8 51174.2 -7.41919 
668 1 25.759 6.497 3 6.02075 -131926 -134174 -94503.4 2663.55 15108 15262.2 -7.41477 
669 1 26.426 5.246 3 6.02678 -170271 -159410 -20582.2 8186.44 23454.5 39359.8 -7.41957 
670 1 25.676 4.043 3 6.02063 -91821.7 -147084 -93822 -20081.2 5818.59 14587.2 -7.41479 
671 1 26.342 2.791 3 6.02042 -115165 -146218 -39961 3663.1 28055.8 25725 -7.41735 
672 1 25.592 1.588 3 6.02705 -147921 -163987 -80791.3 -10526.8 -10738.6 15602.4 -7.41567 
673 1 26.259 0.337 3 6.02762 -154751 -160063 -65366 11617 21997.6 15923.5 -7.41633 
1330 2 18.84 9.241 6.4 6.02568 -171175 -182612 105211 615.401 5880.81 6117.97 -7.42587 
1331 2 19.59 8.038 6.4 6.02192 -141386 -134274 -112405 13547 -5883.2 176.249 -7.41392 
1332 2 18.923 6.786 6.4 6.02578 -162662 -143995 81001 20158.1 22541.4 7397.86 -7.42473 
1333 2 19.673 5.583 6.4 6.02293 -105198 -189382 -87770.8 -12552.4 -6295.35 5672.17 -7.41565 
1334 2 19.007 4.332 6.4 6.01938 -114065 -168265 41835.3 -22023.4 40625.9 9415.99 -7.42162 
1335 2 19.757 3.128 6.4 6.022 -138385 -145960 -62676.8 -16323.2 -7740.71 9903.5 -7.41638 
1336 2 19.09 1.877 6.4 6.02798 -154513 -181839 266.137 4947.26 42843 14143.9 -7.42017 
1337 2 19.84 0.674 6.4 6.02773 -144278 -178539 -37472.9 889.805 -22802.1 14730.3 -7.41814 
1381 2 21.674 9.337 6.4 6.02683 -152729 -167591 -105929 -10197.2 5483.68 2168.53 -7.41425 
1382 2 21.007 8.086 6.4 6.02072 -154451 -132262 78095.2 -28666.8 13270.4 26837.9 -7.42417 
1383 2 21.758 6.882 6.4 6.02057 -127575 -124153 -96104.4 -37397.1 1100.67 12899.4 -7.41454 
1384 2 21.091 5.631 6.4 6.02413 -117578 -182046 46423.8 7027.91 32152.7 29438.8 -7.42264 
1385 2 21.841 4.428 6.4 6.02913 -145411 -172810 -80001.5 -6063.38 -338.674 21433.2 -7.41585 
1386 2 21.174 3.177 6.4 6.02075 -150992 -147207 7356.11 -8243.5 44697 31590 -7.42021 
1387 2 21.924 1.973 6.4 6.02371 -137466 -145401 -62064.8 -24278 -10285 26613.4 -7.41611 
1388 2 21.257 0.722 6.4 6.02221 -141832 -156563 -29242.6 -11244.9 36278.9 33401.2 -7.41848 
1432 2 23.091 9.385 6.4 6.02199 -155245 -124545 54984.9 7823.82 9784.72 45325.1 -7.4233 
1433 2 23.842 8.182 6.4 6.02208 -139393 -148920 -93303.1 -24421.7 11473.9 16949.4 -7.41525 
1434 2 23.175 6.931 6.4 6.01942 -159253 -145612 34065.2 -8703.96 24991.4 44883.8 -7.42207 
1435 2 23.925 5.727 6.4 6.0244 -139311 -136379 -91202.4 -27141.3 5467.38 22947.1 -7.41449 
1436 2 23.258 4.476 6.4 6.02913 -168479 -171118 4074.39 9407.88 40103.2 39782.1 -7.42057 
1437 2 24.008 3.273 6.4 6.022 -135762 -134079 -83003.7 9547.45 -2391.29 24394.9 -7.41528 
1438 2 23.341 2.021 6.4 6.02087 -140135 -121358 -29031.1 13372 41273.4 34051.7 -7.41825 
1439 2 24.092 0.818 6.4 6.02225 -139037 -148243 -66262.2 -19655.8 -17681.3 25673.8 -7.41617 
1483 2 25.926 9.481 6.4 6.0205 -131161 -117104 -82784.8 -39952.8 21734.1 16580.1 -7.41526 
1484 2 25.259 8.23 6.4 6.02798 -170547 -168892 10412.6 7730.03 18286.3 55323.5 -7.42127 
1485 2 26.009 7.027 6.4 6.02672 -139080 -128122 -93628.3 9327.1 10098.7 18959.5 -7.41474 
1486 2 25.342 5.775 6.4 6.02192 -163194 -133317 -5954.8 30789.6 29238 43938 -7.41972 
1487 2 26.092 4.572 6.4 6.02567 -143391 -165640 -95894.2 -10274.7 753.091 16238.3 -7.41462 
1488 2 25.425 3.321 6.4 6.02228 -153779 -152071 -28966.5 -1429.45 35858.3 30280.3 -7.41835 
1489 2 26.176 2.118 6.4 6.02057 -129407 -111718 -86512.5 -4641.23 -9722.23 13287.2 -7.41522 
1490 2 25.509 0.866 6.4 6.02269 -144109 -129693 -56629.3 27902.6 28721.7 20343.2 -7.41673 
716 1 28.01 10.107 3 6.02567 -149823 -167958 -71460.6 -11445.7 27936.2 5510.68 -7.41587 
717 1 28.677 8.856 3 6.02228 -159538 -142495 -38812.2 16713.1 5724.28 46251.6 -7.41776 
718 1 27.926 7.653 3 6.02059 -127357 -113467 -89973.4 -15889.9 17442.9 6057.48 -7.41485 
719 1 28.593 6.401 3 6.02557 -160742 -125550 -36828.3 -9973.58 8479.6 37043.3 -7.41782 
720 1 27.843 5.198 3 6.02913 -143825 -160751 -98739.8 -14134.2 8219.51 4933.22 -7.41506 
721 1 28.51 3.947 3 6.022 -157391 -127668 -42950.2 25377.5 18263.6 26329.1 -7.41748 
722 1 27.76 2.743 3 6.02068 -96554.9 -151304 -94486.8 16742.2 -2175.29 8165.6 -7.4143 
723 1 28.426 1.492 3 6.02293 -116932 -180970 -61890.8 21296.2 20497.9 17160 -7.4165 
724 1 27.676 0.289 3 6.02393 -150142 -159275 -75699.5 -17299.1 -15349 13998.3 -7.41629 
767 1 30.844 10.011 3 6.02913 -166640 -151930 -66898.6 -2059.26 7867.6 29589.7 -7.41615 
768 1 30.094 8.808 3 6.02192 -136660 -135143 -73938.9 -27418.1 23520.4 -5632.18 -7.4158 
769 1 30.761 7.556 3 6.02059 -149926 -101691 -61215.3 -801.88 2449.98 28527 -7.41649 
770 1 30.01 6.353 3 6.02218 -135544 -149927 -91180.9 3314.98 11532.1 -2900.8 -7.41514 
771 1 30.677 5.102 3 6.02317 -160114 -127722 -58071.9 25401.9 13523.7 28305.9 -7.41618 
772 1 29.927 3.898 3 6.02075 -135299 -136509 -98807.7 368.307 5576.52 8219.43 -7.41463 
773 1 30.594 2.647 3 6.02913 -163210 -161272 -67852.3 6951.77 21625.4 29081.2 -7.41636 
774 1 29.844 1.444 3 6.02413 -98656.6 -171104 -92756.1 -16778.9 -3710.15 23017.6 -7.41496 
775 1 30.511 0.193 3 6.02032 -135844 -115861 -86191.8 38833.8 11088.4 26247.1 -7.41486 
818 1 32.261 9.963 3 6.02191 -140397 -140692 -49139.4 -25237.2 35030.8 -13097.3 -7.41717 
819 1 32.928 8.711 3 6.02191 -157533 -112339 -84929.7 -19786.3 4377.37 13594 -7.41529 
820 1 32.178 7.508 3 6.02568 -143985 -177079 -70653.4 -7132.64 20102 -9962.46 -7.41596 
821 1 32.845 6.257 3 6.02228 -159510 -135325 -80695.3 16262.3 13281.4 20951.3 -7.4155 
822 1 32.094 5.054 3 6.02059 -128368 -122248 -90382 -15506.9 18032.3 3592.77 -7.41501 
823 1 32.761 3.802 3 6.02557 -158165 -122597 -85090.5 -14174.2 28765.1 31094.4 -7.41519 
824 1 32.011 2.599 3 6.02913 -148894 -167938 -103066 -15475 13118.9 26709.1 -7.41495 
825 1 32.678 1.348 3 6.022 -151899 -130116 -99493.2 17935.5 19722.1 37213.4 -7.4141 
826 1 31.928 0.144 3 6.02155 -142330 -134557 -99866.7 -584.328 -4191.8 42440.7 -7.41413 
860 1 35.095 9.866 3 6.02 -154024 -126664 -97596.5 -7784.55 8833.86 346.597 -7.41472 
861 1 34.345 8.663 3 6.02688 -147786 -178914 -47298.8 -4342.27 29896.3 -8861.41 -7.41735 
862 1 35.012 7.412 3 6.02891 -161081 -147215 -96623.7 -2416.43 10217.3 6421.06 -7.4148 
863 1 34.262 6.209 3 6.02221 -137186 -144582 -70700 -23716.9 29891.1 -4296.95 -7.41593 
864 1 34.929 4.957 3 6.02156 -144340 -99115.6 -99469.8 -5579.83 29976.3 14997.3 -7.41468 
865 1 34.178 3.754 3 6.02218 -140035 -155314 -99044 6278.62 33887 11259.2 -7.41469 
866 1 34.845 2.503 3 6.0228 -147061 -126962 -112523 18888.1 33449.8 21380 -7.41348 
867 1 34.095 1.299 3 6.02244 -141025 -135271 -117078 5310.74 15600.8 28872.6 -7.41349 
868 1 34.762 0.048 3 6.02703 -145828 -157806 -122651 1541.58 1242.06 22430.3 -7.4136 
1534 2 27.343 9.53 6.4 6.01942 -158165 -133318 -19602.9 -10607.8 12602.2 54298.5 -7.4188 
1535 2 28.093 8.326 6.4 6.02475 -140663 -131953 -86073.9 -25957.6 17328.6 8259.66 -7.41482 
1536 2 27.426 7.075 6.4 6.02931 -172138 -161120 -23943.1 10841.9 15346.9 44531.2 -7.4188 
1537 2 28.176 5.872 6.4 6.02192 -87011.8 -131052 -97559.3 10030.7 4786.7 7497.91 -7.41428 
1538 2 27.509 4.62 6.4 6.02059 -148688 -112783 -32504.1 19730.2 21420.6 30710 -7.41809 
1539 2 28.26 3.417 6.4 6.02303 -136548 -148370 -97831.7 -24613.9 -2246.92 7318.7 -7.41473 
1540 2 27.593 2.166 6.4 6.02568 -159597 -167264 -51303.6 13595 23647.3 20616 -7.41692 
1541 2 28.343 0.963 6.4 6.02122 -141764 -125565 -84524.3 8604.74 -11653.1 10601.1 -7.41557 
1585 2 30.177 9.626 6.4 6.02672 -142187 -132021 -66795.3 12291 29558.6 -7969.75 -7.41619 
1586 2 29.51 8.374 6.4 6.02188 -160690 -119671 -48924 25634.5 6179.51 36951.6 -7.41727 
1587 2 30.26 7.171 6.4 6.02293 -104646 -185018 -85027.7 -19956.9 14030.2 -3033.31 -7.41504 
1588 2 29.594 5.92 6.4 6.02293 -125555 -176590 -47234 1916.19 7319.87 30298.4 -7.41715 
1589 2 30.344 4.717 6.4 6.02196 -138372 -130699 -96443.5 7752.79 10700.9 5646.79 -7.41507 
1590 2 29.677 3.465 6.4 6.02191 -155620 -127245 -54311.1 31484.6 14699.4 29133.3 -7.41692 
1591 2 30.427 2.262 6.4 6.02621 -148693 -170288 -98439.6 -12955 5225.27 17162.6 -7.41475 
1592 2 29.76 1.011 6.4 6.02279 -146794 -147319 -73382.8 -2257.1 14239 30117 -7.41577 
1636 2 31.594 9.674 6.4 6.02688 -166561 -146596 -74090.3 3180.56 6867.59 23170.4 -7.41611 
1637 2 32.344 8.471 6.4 6.01892 -95072.5 -156680 -61248.3 3305.28 25985.2 -12186.8 -7.41648 
1638 2 31.678 7.219 6.4 6.02042 -118011 -134009 -70637 14722 1397.63 22422.3 -7.4158 
1639 2 32.428 6.016 6.4 6.02688 -147575 -171981 -80521 -8615.38 24705.7 1021.35 -7.41569 
1640 2 31.761 4.765 6.4 6.02798 -169621 -156510 -70868.5 10162.6 11237.9 28047.9 -7.41588 
1641 2 32.511 3.562 6.4 6.02192 -139913 -138277 -99598.2 7682.14 28135.2 18495.2 -7.41452 
1642 2 31.844 2.31 6.4 6.02088 -144217 -110637 -83343.9 14972 17143.3 39694.7 -7.41528 
1643 2 32.595 1.107 6.4 6.02215 -142960 -145094 -107794 -21649 10241.5 32881.3 -7.41439 
1687 2 34.429 9.77 6.4 6.02268 -139479 -165906 -36996.1 -17161.3 36259.6 -11245.2 -7.41763 
1688 2 33.762 8.519 6.4 6.02453 -115428 -151203 -90991 4466.06 3240.88 11418.3 -7.41461 
1689 2 34.512 7.316 6.4 6.02171 -138525 -144019 -58084.1 15464.8 31267.5 -2449.21 -7.4166 
1690 2 33.845 6.064 6.4 6.022 -161906 -114238 -90352.1 25003.7 12059.8 13889.4 -7.41512 
1691 2 34.595 4.861 6.4 6.02664 -148523 -174998 -84946.2 -5321.21 41278.8 9303.91 -7.41535 
1692 2 33.928 3.61 6.4 6.02072 -149122 -107852 -98525.1 -26005.8 26682.2 23700.3 -7.41423 
1693 2 34.679 2.406 6.4 6.02071 -128942 -121310 -112407 -32816.5 35074.6 18526.5 -7.4138 
1694 2 34.012 1.155 6.4 6.02837 -154045 -158862 -114093 5819.01 16007.9 33175 -7.41402 
1733 2 35.846 9.818 6.4 6.02104 -157792 -121993 -98927.8 7826.42 8372.74 4604.17 -7.41473 
1734 2 35.929 7.364 6.4 6.02871 -165677 -142883 -98927.3 3318.47 9905.49 708.027 -7.41466 
1735 2 36.012 4.909 6.4 6.0216 -148853 -94641.3 -103091 6998.53 29582.8 -2002.99 -7.41447 
1736 2 36.096 2.455 6.4 6.01958 -148312 -121291 -117246 -13440.2 32742 -896.296 -7.41346 
44 1 1.417 20.84 3 6.02605 -153347 -164920 -122812 3710.48 -1827.42 -3890.32 -7.41323 
45 1 0.667 19.637 3 6.0215 -157878 -144586 105566 -21234.4 8169.82 1962.72 -7.42592 
46 1 1.334 18.385 3 6.02217 -156559 -117937 -112379 -18757.8 -2683.62 -5331.98 -7.41406 
47 1 0.584 17.182 3 6.02411 -170112 -197816 77861.2 12030.2 29773.6 -1857.07 -7.42464 
48 1 1.25 15.931 3 6.02253 -129395 -167449 -96098.1 11980.4 11699.3 -5353.49 -7.4144 
49 1 0.5 14.728 3 6.021 -149854 -146148 34248.7 -18841.7 51369.5 -820.675 -7.42231 
50 1 1.167 13.476 3 6.02709 -159706 -111213 -91451.2 -21010.5 22624.6 -6705.63 -7.41484 
51 1 0.417 12.273 3 6.0285 -148233 -182196 -5995.79 -2791.57 52674.8 3288.17 -7.4201 
52 1 1.084 11.022 3 6.02057 -141140 -98113.3 -95808.8 26420.3 14423.4 -7539.3 -7.41456 
96 1 2.834 20.792 3 6.02059 -154933 -127558 92030.4 -6061.44 635.634 21769.5 -7.42522 
97 1 3.501 19.54 3 6.02192 -150884 -129207 -101508 -11329.9 -8748.94 -5083.28 -7.41434 
98 1 2.751 18.337 3 6.02798 -173704 -179136 80883.7 -741.516 17702.5 15816.7 -7.42446 
99 1 3.418 17.086 3 6.02688 -168606 -154623 -87835.7 4235.07 1721.36 -8202.99 -7.41537 
100 1 2.668 15.883 3 6.02042 -119117 -161314 46662.1 -5703.43 41587.7 13032.1 -7.42249 
101 1 3.334 14.631 3 6.01892 -117604 -132955 -79980.9 -6941.41 18391.2 -11083.5 -7.41553 
102 1 2.584 13.428 3 6.02688 -162433 -176203 4296.1 2757.2 54427.8 14878.7 -7.42069 
103 1 3.251 12.177 3 6.02451 -155427 -117383 -83132.2 18240 19886.3 -14214.8 -7.41513 
104 1 2.501 10.973 3 6.02075 -138912 -148496 -29196.1 17769 44137.7 15923.8 -7.41843 
147 1 5.669 20.696 3 6.0205 -135427 -118569 -86708 39503.6 -17072.2 7824.43 -7.41512 
148 1 4.918 19.492 3 6.02072 -155776 -128896 59213.9 32214.6 5630.77 39606.4 -7.42292 
149 1 5.585 18.241 3 6.02683 -164910 -161715 -73416.6 9809.97 -12403.4 -1490.48 -7.4161 
150 1 4.835 17.038 3 6.02191 -164566 -139252 42120.1 -16315.5 28481.6 30476 -7.42221 
151 1 5.502 15.786 3 6.02191 -161551 -121450 -62510.9 -11909.3 4747.81 -11707 -7.41655 
152 1 4.752 14.583 3 6.02413 -116903 -177983 7432.51 4722.42 49631.7 22978.9 -7.41993 
153 1 5.419 13.332 3 6.02228 -157976 -138090 -62107.7 17039.6 17874.1 -22187.5 -7.41643 
154 1 4.668 12.129 3 6.02184 -139147 -122380 -29286.6 1137.36 50085.7 18723.9 -7.41822 
155 1 5.335 10.877 3 6.02557 -155600 -118600 -66238.5 -18951.9 13348.9 -28053.1 -7.41619 
198 1 7.086 20.647 3 6.02075 -162473 -141023 20277.2 12309.4 -7437.31 57031.3 -7.42081 
199 1 7.753 19.396 3 6.02218 -150088 -144613 -65123.7 24040.8 -27829.7 7487.08 -7.41687 
200 1 7.002 18.193 3 6.02199 -154679 -118063 18328.9 -372.948 10076.4 46784.9 -7.42089 
201 1 7.669 16.941 3 6.02192 -158809 -128175 -47008 -7129.31 -18079.5 -8091.2 -7.41726 
202 1 6.919 15.738 3 6.02913 -171376 -168175 232.431 6863.52 33657.6 30029.2 -7.41978 
203 1 7.586 14.487 3 6.02913 -171780 -158886 -37621.2 6928.49 1293.24 -27135.5 -7.41777 
204 1 6.836 13.284 3 6.02192 -153334 -133873 -29452.9 -8844.95 47018.4 14697.4 -7.41825 
205 1 7.503 12.032 3 6.02059 -151016 -106655 -37740.4 -2071.68 12399.3 -42151.9 -7.41781 
206 1 6.752 10.829 3 6.02218 -145503 -148203 -59101.1 22619.5 38097.2 5523.91 -7.41674 
254 1 9.003 14.439 3 6.02191 -159743 -127729 -34438.8 -7970.27 28987 13048.8 -7.41802 
256 1 8.92 11.984 3 6.02568 -158685 -166202 -57132 12168 35689.7 -3590.06 -7.41674 
869 2 0 20.888 6.4 6.02795 -172574 -173470 110031 2180.52 27.4019 -43.1472 -7.42622 
870 2 0.083 18.433 6.4 6.01873 -116987 -162297 95883.2 -24659.7 18022.3 4188.62 -7.42504 
871 2 0.167 15.979 6.4 6.02647 -163866 -175810 57379.4 2640.95 42702.7 6406.92 -7.42396 
872 2 0.25 13.524 6.4 6.02492 -147684 -148778 13120 -17317 55737.3 3325.07 -7.42082 
873 2 0.333 11.07 6.4 6.01805 -96878.1 -161377 -20453.4 8792.05 45773.8 737.465 -7.41888 
913 2 2.167 19.733 6.4 6.02333 -131287 -193660 96870.2 -7901.04 6465.95 13335.7 -7.42566 