ITEM: TIMESTEP
0
ITEM: NUMBER OF ATOMS
728
ITEM: BOX BOUNDS pp pp pp
0.0000000000000000e+00 2.3428746799999999e+01
0.0000000000000000e+00 4.0579779799999997e+01
0.0000000000000000e+00 1.8399999999999999e+01
ITEM: ATOMS id type x y z c_csym c_2[1] c_2[2] c_2[3] c_2[4] c_2[5] c_2[6] c_3 
32 1 0.515 9.81 3 6.01945 -159661 -151678 71464.7 13970.6 44020.2 1624.14 -7.42357 
33 1 1.159 8.547 3 6.02325 -156622 -125182 -82291.3 11732.4 11156.3 -11325.2 -7.41483 
34 1 0.386 7.358 3 6.02357 -143118 -130698 8004.82 -3149.33 57159.6 -1415.81 -7.4196 
35 1 1.03 6.094 3 6.02312 -149629 -92816.8 -80190.7 -10091.9 23651.2 -12838.4 -7.41441 
36 1 0.257 4.905 3 6.02106 -140707 -159519 -54326.2 10147.7 51849.6 -2469.82 -7.41628 
37 1 0.901 3.642 3 6.02424 -155144 -147236 -92324.7 -10261.4 26841.2 -12199.5 -7.41456 
38 1 0.129 2.453 3 6.01968 -103171 -149216 -97781.2 -9058.52 30374.7 -1866.87 -7.41339 
39 1 0.772 1.189 3 6.02378 -148973 -132890 -108192 -11355.3 12944.9 -10202.4 -7.41343 
40 1 0 0 3 6.02928 -150921 -128893 -112286 -14650.6 0.743398 1.65365 -7.41329 
66 1 3.347 9.662 3 6.02694 -161870 -152447 -57689.8 144.208 -3215.34 -24915.4 -7.41629 
67 1 2.575 8.473 3 6.02097 -152308 -157226 22773.6 863.133 48782.7 10338.7 -7.42093 
68 1 3.218 7.209 3 6.0218 -165971 -129311 -47854.1 -8265.75 13208.9 -33585.1 -7.41673 
69 1 2.446 6.02 3 6.02803 -141971 -174088 -35389.3 7765.89 51275 -1133.83 -7.41794 
70 1 3.09 4.757 3 6.0205 -143952 -104368 -56805.6 21383.7 24415 -37321.5 -7.41572 
71 1 2.317 3.567 3 6.02204 -115828 -127123 -81625.1 36509.7 36742.1 -11925.8 -7.41432 
72 1 2.961 2.304 3 6.02417 -145288 -140190 -78588.5 3905.08 22290.9 -36406.5 -7.41482 
73 1 2.188 1.115 3 6.02302 -126248 -120882 -102733 9315.65 9871.61 -20613.3 -7.41325 
99 1 4.763 9.588 3 6.02075 -153780 -133976 9187.01 -13473.5 31209.3 24093.3 -7.4197 
100 1 5.407 8.324 3 6.02311 -151501 -106860 644.632 -1114.6 -3541.69 -39319.9 -7.41925 
101 1 4.634 7.135 3 6.02311 -133279 -117412 -34751.3 9861.29 40177.5 7214.24 -7.41721 
102 1 5.278 5.871 3 6.02328 -161274 -124554 271.502 -26118.2 16085.7 -48271.3 -7.41922 
103 1 4.506 4.682 3 6.02448 -142821 -186506 -72104.4 21218.2 31978.7 -9761.76 -7.41564 
104 1 5.149 3.419 3 6.02494 -162639 -176242 -23635.5 -4195.02 25877.2 -50173.2 -7.41864 
105 1 4.377 2.23 3 6.02199 -139228 -146971 -87589.3 8541.64 11238.1 -25473.1 -7.41455 
106 1 5.02 0.966 3 6.02316 -149865 -152003 -58196.1 -24399.7 19824.9 -45083.5 -7.41627 
132 1 7.595 9.439 3 6.02803 -164689 -169489 43169.4 1470.74 -24238 -29828.7 -7.42226 
133 1 6.823 8.25 3 6.0218 -151796 -143052 -53181.3 4534.58 23278.4 15501 -7.41642 
134 1 7.466 6.986 3 6.0218 -166724 -151276 59711.1 -7499 1557.63 -41790.2 -7.42298 
135 1 6.694 5.797 3 6.02803 -143457 -164837 -78065.1 12149.3 21242.2 -1582.4 -7.41528 
136 1 7.338 4.534 3 6.0205 -143759 -125525 42363.1 20925.4 22525.2 -47501.9 -7.42147 
137 1 6.565 3.344 3 6.02204 -118272 -125396 -83289.1 45165.2 5942.24 -18415.2 -7.41399 
138 1 7.209 2.081 3 6.02603 -142357 -157703 45.6946 274.173 29964.4 -46103.5 -7.41956 
139 1 6.436 0.892 3 6.02306 -128012 -126954 -63022.5 16003.6 -14652.2 -33177.2 -7.41552 
165 1 9.011 9.365 3 6.02328 -151925 -117185 -79721.4 -16779.3 6363.5 15944.4 -7.4146 
166 1 9.655 8.101 3 6.02311 -152112 -125797 98117.5 -2406.22 -16163.5 -21077.5 -7.42496 
167 1 8.882 6.912 3 6.02311 -131205 -106717 -95786.1 6319.51 9710.93 4974.9 -7.41374 
168 1 9.526 5.648 3 6.02075 -161532 -143897 97813.9 -24392.6 12712.6 -28170 -7.42492 
169 1 8.754 4.459 3 6.02242 -143230 -183998 -93090.4 19641.7 -334.892 -6891.42 -7.41418 
170 1 9.397 3.196 3 6.02449 -164210 -195664 59597.3 4575.86 31576.5 -31062.1 -7.42328 
171 1 8.625 2.007 3 6.02482 -130109 -138215 -63892 -5719 -17368.9 -18623.6 -7.41592 
172 1 9.269 0.743 3 6.02301 -134878 -132500 686.205 -15883.1 33727.2 -29156.2 -7.41927 
199 1 11.071 8.027 3 6.0218 -149035 -133656 -107877 -5757.68 1783.75 2389.2 -7.41333 
200 1 11.714 6.763 3 6.02097 -166309 -162323 119719 -7161.03 38.7994 46.9915 -7.4266 
201 1 10.942 5.574 3 6.02694 -139668 -163617 -107845 -340.606 -2936.66 382.462 -7.41347 
202 1 11.586 4.311 3 6.02241 -153116 -167142 98125.5 9059.81 26284.6 -3453.76 -7.4249 
203 1 10.813 3.122 3 6.02121 -122821 -120825 -79892.3 -611.095 -16935.5 -2433.92 -7.41439 
204 1 11.457 1.858 3 6.02638 -148382 -144439 43169.5 -20971.8 37974.7 -6119.6 -7.4219 
205 1 10.685 0.669 3 6.02519 -144913 -164283 -26283.3 2295.13 -31989.7 -6613.31 -7.41808 
367 2 0.257 8.621 6.4 6.01781 -162461 -204521 42430 -5417.76 52333.1 4145.68 -7.42226 
368 2 0.386 6.169 6.4 6.02668 -139212 -151005 -23329 20763.5 56429.9 2666.63 -7.41828 
369 2 0.515 3.716 6.4 6.02668 -131303 -163921 -78776 -8737.19 42608.9 -1031.89 -7.41515 
370 2 0.644 1.263 6.4 6.02077 -120898 -121472 -108074 -19213.3 15327.6 -6144.87 -7.41303 
371 2 0 0 6.4 6.02653 -156131 -162855 -112370 10530.8 -7.31934 -8.32855 -7.41361 
396 2 2.317 9.959 6.4 6.02655 -156259 -180618 59572.4 7624.17 36965.9 19580.1 -7.42332 
397 2 1.673 8.696 6.4 6.0216 -153987 -129389 -78126.6 -5097.23 11979.2 -17633.4 -7.4147 
398 2 2.446 7.507 6.4 6.02074 -130486 -129725 144.902 15001.5 49807.6 10214.2 -7.41902 
399 2 1.802 6.243 6.4 6.02422 -151009 -92103.7 -72046.6 7031.76 24433.6 -22801.1 -7.415 
400 2 2.575 5.054 6.4 6.02311 -123611 -122545 -56805.5 13722.2 44603.2 -2443.84 -7.41597 
401 2 1.931 3.79 6.4 6.02367 -155156 -112414 -81618.7 18832.1 28690 -25847.2 -7.41462 
402 2 2.703 2.601 6.4 6.02416 -138948 -186550 -92385 6527.07 24089.3 -17086.8 -7.41451 
403 2 2.06 1.338 6.4 6.02396 -154302 -170905 -97932.8 -10123.8 16696.1 -25358.4 -7.41411 
404 2 2.832 0.149 6.4 6.02383 -138301 -136464 -97078.8 29112.7 -3123.91 -29816.6 -7.41367 
429 2 3.733 10.033 6.4 6.02113 -142506 -106685 -53502.4 15551.4 -1752.92 -27879.5 -7.4159 
430 2 4.506 8.844 6.4 6.02241 -142862 -157820 634.624 1263.23 32291.8 22679.2 -7.41919 
431 2 3.862 7.581 6.4 6.02586 -163510 -153633 -34587 6132.49 13813.6 -38408.7 -7.41783 
432 2 4.634 6.392 6.4 6.02097 -140321 -154006 -47742.8 20838.4 35620.7 5372.2 -7.41684 
433 2 3.991 5.128 6.4 6.0218 -164821 -133520 -35466.3 5112.42 26644.6 -43836 -7.41745 
434 2 4.763 3.939 6.4 6.02803 -136209 -171354 -80293.9 19932.4 22830.4 -14112.4 -7.41516 
435 2 4.119 2.676 6.4 6.0205 -137927 -111519 -54207.4 -35002.1 28134.6 -43677 -7.41586 
436 2 4.892 1.486 6.4 6.01998 -117090 -125545 -82785.3 -11325 286.53 -32499 -7.41421 
437 2 4.248 0.223 6.4 6.02754 -149653 -168293 -78126.2 -4962.55 13266.1 -37390.1 -7.4153 
463 2 5.922 8.919 6.4 6.01829 -158883 -150108 9158.65 -17448.5 -5187.73 -39126.4 -7.41986 
464 2 6.694 7.729 6.4 6.0208 -137189 -136523 -57534 2958.91 20001.3 15221.7 -7.41585 
465 2 6.05 6.466 6.4 6.02325 -158804 -145670 22648 -12102.3 15469.8 -47402.8 -7.42088 
466 2 6.823 5.277 6.4 6.02311 -121383 -119752 -82426.9 19936.5 15432.9 -4030.9 -7.41438 
467 2 6.179 4.013 6.4 6.02328 -158121 -129647 8242.32 16217.2 29685.7 -48803 -7.41969 
468 2 6.951 2.824 6.4 6.02448 -138226 -189254 -80116.3 11300.6 -1241.45 -23031.2 -7.41518 
469 2 6.308 1.561 6.4 6.02396 -156052 -184029 -26351.2 -16500.3 29558.6 -43743 -7.41824 
470 2 7.08 0.372 6.4 6.02383 -135278 -147831 -47951.2 30735 -20553.1 -37924.3 -7.41665 
496 2 8.754 9.067 6.4 6.02288 -142182 -140001 -78315.1 1410.42 4103.63 18382.5 -7.41491 
497 2 8.11 7.804 6.4 6.02457 -164347 -174215 71999.3 12166.2 -4507.35 -36091.8 -7.4238 
498 2 8.882 6.615 6.4 6.02045 -142616 -143682 -96690.5 19335.5 6176.91 4725.4 -7.41382 
499 2 8.239 5.351 6.4 6.0218 -165756 -154643 71315.5 4792.86 20675.2 -38958.7 -7.42368 
500 2 9.011 4.162 6.4 6.02803 -136929 -168626 -91955.2 15176.4 -4234.05 -9873.93 -7.41449 
501 2 8.367 2.899 6.4 6.0205 -139179 -129018 37313 -34204.5 34729.7 -36228.3 -7.42117 
502 2 9.14 1.709 6.4 6.02096 -117796 -132544 -56410.3 -17372.1 -21167.9 -22040.4 -7.41549 
503 2 8.496 0.446 6.4 6.02491 -139176 -166313 -14771.5 -17717 32142.1 -29062.2 -7.41873 
529 2 10.17 9.142 6.4 6.01829 -158844 -166544 91240 -21531.8 -27298.8 -16548.6 -7.42468 
530 2 10.942 7.952 6.4 6.0208 -138712 -123979 -107761 -6785.03 877.748 4049.92 -7.41303 
531 2 10.298 6.689 6.4 6.02326 -159182 -163000 112177 -12255.7 2763.54 -17347.4 -7.42613 
532 2 11.071 5.5 6.4 6.02311 -123158 -112973 -107895 6997.37 -3899.88 -1230.57 -7.41296 
533 2 10.427 4.236 6.4 6.02328 -158553 -145590 91057.8 20320.6 28011.6 -15459.1 -7.42451 
534 2 11.199 3.047 6.4 6.02449 -140164 -188728 -78373.1 -2902.66 -17892.3 -5638.15 -7.41527 
535 2 10.556 1.784 6.4 6.02494 -156664 -194720 37917.3 -8892.18 38235.7 -11517.3 -7.42216 
536 2 11.328 0.595 6.4 6.02248 -144513 -165668 -22975.7 4836.1 -32715.7 -7304.25 -7.41824 
198 1 11.843 9.216 3 6.02803 -162330 -180896 97718.7 -2798.12 -30755.2 3094.01 -7.4257 
231 1 13.259 9.142 3 6.02365 -137620 -102234 -95856.6 -12891.2 -525.783 -10839.6 -7.41351 
232 1 13.903 7.878 3 6.02402 -150629 -129942 98024.6 -6024.74 -10276.7 24612.7 -7.42463 
233 1 13.13 6.689 3 6.02326 -134413 -142322 -107878 6578 1159.82 -2744.32 -7.4134 
234 1 13.774 5.426 3 6.0208 -156368 -149030 97809 11781.2 18161.9 25033 -7.42492 
235 1 13.002 4.236 3 6.01828 -131733 -154977 -95734.2 18646.6 -9127.43 5868.63 -7.41386 
236 1 13.645 2.973 3 6.02448 -165717 -193017 59660.1 14312.8 35389.7 22167.4 -7.42342 
237 1 12.873 1.784 3 6.0272 -132178 -141699 -53387.7 -25193 -25057.2 12483.7 -7.41621 
238 1 13.517 0.52 3 6.02301 -135476 -131974 640.245 -1193.73 35817.3 16651.2 -7.41926 
264 1 16.091 8.993 3 6.02603 -170438 -183190 43253 4163.54 -13639.3 35907 -7.42265 
265 1 15.319 7.804 3 6.0238 -147088 -140166 -79747.8 -18154 10575.8 -13454.3 -7.41512 
266 1 15.962 6.54 3 6.02045 -167882 -151217 59563.4 -8926.12 11123.7 42920.2 -7.42283 
267 1 15.19 5.351 3 6.02457 -135417 -168461 -93041.1 -22393.6 6138.98 3174.56 -7.41427 
268 1 15.834 4.088 3 6.02288 -151578 -155825 42554.2 12968.1 29793.5 43282.4 -7.42192 
269 1 15.061 2.899 3 6.02281 -120752 -122594 -78073.2 -18585.5 -9343.97 19229.8 -7.4145 
270 1 15.705 1.635 3 6.02638 -148371 -135581 131.483 -10011.3 33744.5 38050.7 -7.41942 
271 1 14.933 0.446 3 6.02519 -143715 -163213 -34743.5 -13707.4 -26336.8 31116.5 -7.41761 
296 1 18.28 10.108 3 6.02288 -147357 -146639 -23003.2 -1869.12 -10077.2 31961.9 -7.41806 
297 1 17.507 8.919 3 6.02388 -138657 -118076 -26308.3 -17034.3 21734.7 -24443 -7.41724 
298 1 18.151 7.655 3 6.02494 -148181 -110905 464.558 -9632.4 8349.97 43779.8 -7.41915 
299 1 17.378 6.466 3 6.02325 -133125 -152840 -64004 -2431.19 24872.5 -5705.19 -7.41587 
300 1 18.022 5.203 3 6.01952 -153288 -130843 112.768 14683.4 25020 48971.3 -7.41941 
301 1 17.25 4.013 3 6.01828 -130114 -158436 -83051.2 7554.64 12992.6 14367 -7.41458 
302 1 17.893 2.75 3 6.02448 -165077 -177001 -23641.3 18892.2 30522.8 47465.3 -7.41858 
303 1 17.121 1.561 3 6.0272 -130686 -138282 -72164.5 -36786.7 -7543.58 32595.9 -7.41515 
304 1 17.765 0.297 3 6.02301 -134660 -120607 -56605.1 6371.12 20101.1 39893.2 -7.416 
329 1 19.696 10.033 3 6.01828 -154319 -160537 38033.6 16515.7 29075.9 -27330.4 -7.42154 
330 1 20.339 8.77 3 6.02448 -170494 -164021 -56480.5 4081.3 8492.37 29363.6 -7.41667 
331 1 19.567 7.581 3 6.02611 -138618 -140981 -14855.4 -30586.8 41224.8 -13391.3 -7.41866 
332 1 20.211 6.317 3 6.02282 -151987 -97730.8 -48168.8 -6819.74 22570.7 36739.6 -7.41621 
333 1 19.438 5.128 3 6.02474 -123380 -161183 -63029.2 -7999.47 36010 3969.21 -7.41581 
334 1 20.082 3.865 3 6.02288 -150168 -138024 -57910.4 11908.5 29152.2 39790.1 -7.41587 
335 1 19.309 2.676 3 6.02281 -120400 -120770 -87779.2 -20663 16428.1 22411.7 -7.41397 
336 1 19.953 1.412 3 6.02638 -146616 -120961 -78697.5 -10995.2 20426.7 37451.3 -7.41489 
337 1 19.181 0.223 3 6.02519 -143535 -153603 -81583.1 -16634.1 -8006.01 37764.5 -7.41495 
356 1 22.528 9.885 3 6.02106 -159558 -130081 -91779.9 2565.6 6358.68 8677.2 -7.41435 
357 1 21.755 8.696 3 6.02281 -138967 -129103 37228.9 -10313.1 48749.3 -11961.4 -7.42116 
358 1 22.399 7.432 3 6.02611 -170955 -106963 -80063.6 -21496.5 19322 12585.8 -7.41492 
359 1 21.627 6.243 3 6.02377 -149383 -191844 -26252.9 3299.57 52619.1 -3682.7 -7.41843 
360 1 22.27 4.98 3 6.01893 -173473 -126414 -82854.3 24510 28270.8 16041.8 -7.41482 
361 1 21.498 3.79 3 6.01892 -131458 -157398 -77957.7 15680.9 39053.9 7281.58 -7.41509 
362 1 22.141 2.527 3 6.02481 -128297 -163805 -97121.3 10201.7 24236 17564.1 -7.41399 
363 1 21.369 1.338 3 6.02681 -131211 -131631 -102785 -28559.3 12856.5 18873.6 -7.41345 
364 1 22.013 0.074 3 6.02236 -143201 -111922 -108074 -4016.86 2336.89 16439.6 -7.41329 
562 2 13.002 9.29 6.4 6.02288 -144215 -133634 -96768.7 -9566.21 977.853 -7706.83 -7.41386 
563 2 12.358 8.027 6.4 6.02457 -164372 -181958 112155 8902.21 -16467.1 6324.9 -7.42618 
564 2 13.13 6.838 6.4 6.02045 -145111 -138758 -107774 3178.07 2988.43 -2788.8 -7.4132 
565 2 12.487 5.574 6.4 6.0218 -165825 -162351 112136 8037.71 13688.7 11056.3 -7.42605 
566 2 13.259 4.385 6.4 6.02803 -136748 -166198 -96692.7 -5231.48 -7149.55 2989.76 -7.41443 
567 2 12.615 3.122 6.4 6.0205 -139131 -135879 72002.3 -24952.3 33573.2 14247.6 -7.42316 
568 2 13.388 1.932 6.4 6.02096 -117163 -131322 -57632.6 -33597.8 -23268.7 9695.56 -7.41562 
569 2 12.744 0.669 6.4 6.02355 -141088 -171544 9254.2 -5439.68 36433.5 14983 -7.41988 
595 2 14.418 9.365 6.4 6.01828 -158850 -162746 71967 -28205.6 -29000.4 22027.7 -7.42354 
596 2 15.19 8.175 6.4 6.0208 -141539 -127867 -78510.5 -19951.7 13837 -12684.4 -7.41467 
597 2 14.546 6.912 6.4 6.02325 -159154 -159024 91049.5 -12262.8 -719.105 31987.8 -7.42489 
598 2 15.319 5.723 6.4 6.02402 -125626 -115555 -91954.3 -9923.66 10679.2 1248.11 -7.41364 
599 2 14.675 4.459 6.4 6.02365 -144889 -127844 71549.4 10178.7 23369.6 37358.6 -7.42344 
600 2 15.448 3.27 6.4 6.0234 -128259 -154666 -82281.3 -28176.5 -4247.25 15409 -7.4147 
601 2 14.804 2.007 6.4 6.02333 -149727 -179411 22577.6 13951.5 33313.7 37126 -7.42087 
602 2 15.576 0.818 6.4 6.01995 -145372 -161741 -48109.1 -9769.55 -22414.3 28211.3 -7.41646 
628 2 17.25 9.513 6.4 6.02288 -146501 -147462 -22976.8 -16627.3 22755.6 -24660.3 -7.41806 
629 2 16.606 8.25 6.4 6.02457 -164097 -167658 37814.4 6362.69 -9155.41 38871.4 -7.4218 
630 2 17.378 7.061 6.4 6.02045 -147694 -147194 -56314.8 -5974.03 29677.4 -7341.56 -7.41611 
631 2 16.735 5.797 6.4 6.02618 -167245 -143526 37213.5 9789.22 14089.4 48148.3 -7.42201 
632 2 17.507 4.608 6.4 6.02617 -140116 -145188 -79865.5 -11548.5 20609.6 10370.7 -7.41524 
633 2 16.864 3.344 6.4 6.0189 -159512 -149444 8112.11 17676.6 27441.7 50122.9 -7.41985 
634 2 17.636 2.155 6.4 6.02209 -138921 -167390 -80080.4 -10365.4 711.552 26881.8 -7.41501 
635 2 16.992 0.892 6.4 6.02195 -130591 -132910 -35191.1 -12826.4 24615.9 45069.8 -7.4171 
661 2 18.666 9.588 6.4 6.01829 -157978 -143745 -26226.6 -29794.6 -10213.6 31021 -7.41781 
662 2 19.438 8.398 6.4 6.01952 -140811 -143225 505.562 -22516.1 42079.6 -14646.6 -7.41941 
663 2 18.794 7.135 6.4 6.02325 -158510 -137981 -14862.4 -11871.4 9011.11 42385.9 -7.4187 
664 2 19.567 5.946 6.4 6.02494 -124925 -123606 -47999.7 -8324.9 43156.7 1155.71 -7.41637 
665 2 18.923 4.682 6.4 6.02402 -147710 -107857 -26177.7 10510.8 23104.1 47498.2 -7.41741 
666 2 19.696 3.493 6.4 6.0234 -128255 -154668 -82881.2 -28190.7 27916.9 16520.2 -7.41469 
667 2 19.052 2.23 6.4 6.02209 -151810 -162308 -54333.5 18450.2 23731.4 46167 -7.41636 
668 2 19.824 1.041 6.4 6.01758 -142482 -153353 -92476.8 -7528.09 2853.61 29316.7 -7.41421 
694 2 21.498 9.736 6.4 6.02531 -148052 -165886 59545 -15699.8 42674.1 -11870.1 -7.42281 
695 2 20.854 8.473 6.4 6.02241 -152423 -134171 -64033 -8593.37 7464.66 24404.7 -7.41548 
696 2 21.627 7.284 6.4 6.01992 -134518 -126786 -36.9128 -1340.29 54913.4 -2815.68 -7.41889 
697 2 20.983 6.02 6.4 6.02655 -158962 -109174 -63061.9 22252.4 21379.4 29194.9 -7.41601 
698 2 21.755 4.831 6.4 6.02418 -141443 -152287 -57914.7 -1548.72 49033.1 5415 -7.41616 
699 2 21.112 3.567 6.4 6.01851 -160243 -130266 -78108.7 14913.3 25794 30207.7 -7.41489 
700 2 21.884 2.378 6.4 6.02365 -137029 -166692 -97227.9 -2113.06 27239.3 12239.6 -7.41402 
701 2 21.24 1.115 6.4 6.02195 -131353 -118515 -97758.2 -18061.1 13584.8 27242.3 -7.41359 
725 2 22.914 9.81 6.4 6.0203 -158446 -117304 -93212.9 22247.4 5841.67 3792 -7.41414 
726 2 23.043 7.358 6.4 6.02234 -176699 -164357 -83222.6 -6905.95 18979.9 4032.31 -7.41511 
727 2 23.171 4.905 6.4 6.02368 -153585 -98251.5 -87753.5 7427.39 27633.8 3094.16 -7.4142 
728 2 23.3 2.453 6.4 6.02117 -138232 -112409 -102665 -22925.9 22832.5 1669.82 -7.41318 
24 1 1.03 19.621 3 6.02622 -167451 -192074 9033.63 6802.04 -36456.1 14955.7 -7.42062 
25 1 1.673 18.358 3 6.01635 -87423.1 -160958 -57836.3 29980.6 23225.5 9676.3 -7.41562 
26 1 0.901 17.168 3 6.01945 -158809 -152405 71916.5 11622.8 -33578 14260.7 -7.42358 
27 1 1.545 15.905 3 6.02325 -129859 -149366 -96621.8 20296.3 7192.56 3033.78 -7.41403 
28 1 0.772 14.716 3 6.02227 -161809 -130620 112252 -6364.84 -13579.3 11104.3 -7.42589 
29 1 1.416 13.452 3 6.02681 -137987 -123499 -107817 -14458.1 -3017.95 -2798.79 -7.41317 
30 1 0.644 12.263 3 6.02481 -138769 -196289 112163 8357.54 16371.5 6297.56 -7.42611 
31 1 1.287 11 3 6.01892 -151300 -135220 -96754.5 25245.7 -909.884 -7651.98 -7.41379 
58 1 3.862 19.472 3 6.02482 -137221 -137901 -47859 -7080.01 22410.4 28236.1 -7.41643 
59 1 3.09 18.283 3 6.02259 -108843 -194495 22621.7 -5941.76 -33331.2 37110.4 -7.42072 
60 1 3.733 17.02 3 6.02494 -141121 -184346 -82321 19666.8 4228.01 15364.9 -7.41524 
61 1 2.961 15.831 3 6.02199 -164146 -155545 71384.5 -12692.4 -23462.1 37302.4 -7.42376 
62 1 3.604 14.567 3 6.02418 -142262 -142879 -91858.3 7161.02 -10718.8 1192.86 -7.41433 
63 1 2.832 13.378 3 6.02694 -162781 -139271 91015.7 -20808.8 664.651 31970 -7.42475 
64 1 3.476 12.114 3 6.02121 -136975 -106977 -78490.2 3939.23 -13873.3 -12703.5 -7.41448 
65 1 2.703 10.925 3 6.02241 -153095 -162032 71865.3 13443.3 29147.5 22009.8 -7.42335 
91 1 5.278 19.398 3 6.02803 -148483 -169346 -35405.6 -17277.5 -24642 45001.3 -7.41773 
92 1 5.922 18.135 3 6.0205 -119476 -123195 -80196.6 44750 -702.586 26882.8 -7.41438 
93 1 5.149 16.945 3 6.02204 -139157 -124963 8051.96 18160.8 -27353.1 50207.8 -7.41926 
94 1 5.793 15.682 3 6.02417 -130814 -153029 -79848.3 30644.8 -20586.4 10417.5 -7.41478 
95 1 5.02 14.493 3 6.02296 -150587 -116361 37329.9 -7802.08 -13960 48195.6 -7.42131 
96 1 5.664 13.229 3 6.02482 -140483 -131171 -56456.2 -6062.03 -29708 -7327.91 -7.41617 
97 1 4.892 12.04 3 6.02448 -171523 -183950 37855.4 12542.2 9066.85 38866.2 -7.42198 
98 1 5.535 10.777 3 6.02242 -163077 -179740 -22921.4 15702.8 -22700.4 -24626.8 -7.41818 
124 1 8.11 19.249 3 6.02328 -136537 -129452 -92303.5 -8432.36 -2862.51 29396.9 -7.41392 
125 1 7.338 18.06 3 6.02448 -156935 -177307 -54300.3 -6385.77 -23719.8 46182.9 -7.41666 
126 1 7.981 16.797 3 6.02448 -141530 -183846 -82852.2 20675.4 -27909.1 16494.5 -7.41525 
127 1 7.209 15.608 3 6.02199 -163809 -136048 -26282.5 -15599.4 -23159.7 47445.1 -7.41806 
128 1 7.852 14.344 3 6.02149 -94590.4 -154167 -48017.3 4744.14 -43187.2 1143.54 -7.41635 
129 1 7.08 13.155 3 6.02932 -167409 -154470 -14884.2 -3720.01 -9076.32 42333 -7.41891 
130 1 7.724 11.892 3 6.02204 -133602 -126774 444.018 37561 -42077.8 -14647 -7.41899 
131 1 6.951 10.702 3 6.0205 -142851 -112271 -26220 32656.1 10324.6 31021.5 -7.41743 
157 1 9.526 19.175 3 6.02803 -149436 -155208 -97851.7 -12152.3 -13614.2 27142.9 -7.41418 
158 1 10.17 17.912 3 6.0205 -118137 -121630 -97204.6 34728.8 -27267.6 12152.5 -7.41343 
159 1 9.397 16.722 3 6.02204 -139963 -103976 -78053.7 20684.6 -25743.4 30212.9 -7.41451 
160 1 10.041 15.459 3 6.02932 -140046 -173084 -58079.4 5218.08 -48978.9 5362.62 -7.41644 
161 1 9.269 14.27 3 6.02149 -117729 -127694 -63038 -12738 -21404.4 29210.3 -7.41549 
162 1 9.912 13.006 3 6.02199 -148224 -157077 199.194 -2108.06 -54895 -2858.17 -7.41959 
163 1 9.14 11.817 3 6.02448 -168517 -160962 -64057.2 5881.06 -7501.07 24403.7 -7.4163 
164 1 9.783 10.554 3 6.02448 -162319 -195134 59580.9 9197.31 -42640.1 -11863 -7.42326 
191 1 11.586 17.837 3 6.02448 -158542 -164777 -102859 2831.19 -22786 1672.23 -7.41392 
193 1 11.457 15.385 3 6.02328 -159354 -107291 -87810.1 -24917.4 -27630.6 3107.74 -7.41418 
195 1 11.328 12.932 3 6.02417 -157918 -125169 -83061.4 10609.5 -18893.4 4034.84 -7.41458 
197 1 11.199 10.479 3 6.0205 -141032 -99294.4 -93216.5 26124.6 -5777.39 3697.46 -7.41363 
365 2 0 13.527 6.4 6.02345 -155685 -140517 119721 8314.42 3.02403 77.0118 -7.42604 
366 2 0.129 11.074 6.4 6.02397 -154172 -135518 97790 4749.76 30846.2 3178.38 -7.42505 
388 2 1.802 19.77 6.4 6.02121 -148514 -156782 451.391 2085.16 -35836.9 16587.5 -7.41956 
389 2 1.159 18.506 6.4 6.02219 -103433 -157454 -53581 13062.8 25037.1 12431.2 -7.416 
390 2 1.931 17.317 6.4 6.0286 -159800 -177566 59777.3 -1569.77 -35402.5 22149.5 -7.42327 
391 2 1.287 16.054 6.4 6.02116 -127742 -123253 -95660.9 -20307 9211.81 5883.35 -7.4137 
392 2 2.06 14.864 6.4 6.0205 -146914 -133178 97908.7 -28120.2 -18067.5 25042.9 -7.42471 
393 2 1.416 13.601 6.4 6.02835 -142797 -158556 -107799 8427.57 -1140.2 -2745.56 -7.4137 
394 2 2.188 12.412 6.4 6.0218 -165833 -159632 98102.9 9179.58 10110.4 24606.8 -7.42522 
395 2 1.545 11.148 6.4 6.0218 -155058 -131344 -95715.8 12700.1 494.509 -10826.6 -7.4139 
421 2 3.218 19.844 6.4 6.02326 -133502 -158788 -34521.9 -1590.15 26322.1 31139.4 -7.41757 
422 2 3.991 18.655 6.4 6.02311 -137607 -121605 37.461 -6317.19 -33761.8 38066.4 -7.41913 
423 2 3.347 17.391 6.4 6.02328 -130411 -138382 -78266 35221.2 9301.59 19235 -7.41469 
424 2 4.119 16.202 6.4 6.02448 -166718 -187446 42315.1 -10131 -29823.7 43246.1 -7.42227 
425 2 3.476 14.939 6.4 6.02448 -140879 -184290 -92997.1 8601.25 -6173.74 3131.95 -7.41443 
426 2 4.248 13.75 6.4 6.02328 -162423 -135495 59563.5 22692 -11077 42910.6 -7.42266 
427 2 3.604 12.486 6.4 6.02311 -133197 -108341 -79770 15388.6 -10558.4 -13494.1 -7.41465 
428 2 4.377 11.297 6.4 6.02402 -149092 -119798 43189 9661.01 13714.8 35931.7 -7.42151 
454 2 6.05 19.993 6.4 6.02045 -147674 -147192 -56906.5 -5983.4 -20112.9 39857.7 -7.41609 
455 2 5.407 18.729 6.4 6.0218 -136475 -153397 -72119.2 23031.1 7543.48 32584.5 -7.41535 
456 2 6.179 17.54 6.4 6.02803 -159604 -161175 -23403.3 -5113.04 -30442.3 47526.6 -7.41843 
457 2 5.535 16.277 6.4 6.0205 -114998 -126905 -83276.9 -10378.8 -12998.3 14391.3 -7.4142 
458 2 6.308 15.087 6.4 6.0205 -146103 -114426 207.525 -29703.1 -24988.1 48976.3 -7.419 
459 2 5.664 13.824 6.4 6.02803 -142805 -168619 -63862.5 19072.3 -24886.4 -5709.25 -7.41608 
460 2 6.436 12.635 6.4 6.0218 -165581 -140249 493.366 10901.4 -8467.15 43779.5 -7.41951 
461 2 5.793 11.371 6.4 6.02489 -152872 -145814 -26224.7 18247.6 -21744.2 -24408.2 -7.41817 
462 2 6.565 10.182 6.4 6.02603 -166062 -174144 -22954.5 -913.471 10012.9 32011 -7.4188 
487 2 7.466 20.067 6.4 6.02326 -133329 -149157 -81499 1332.92 8000.72 37830 -7.4149 
488 2 8.239 18.878 6.4 6.02296 -135852 -106983 -78793 -5334.78 -20440.5 37433.8 -7.4146 
489 2 7.595 17.614 6.4 6.02482 -128337 -136231 -87845.5 35577.3 -16415.3 22370.7 -7.41441 
490 2 8.367 16.425 6.4 6.02449 -167377 -168294 -58110 -13920.2 -29155.6 39713.9 -7.41646 
491 2 7.724 15.162 6.4 6.02242 -142174 -191319 -62928.6 7325.34 -36025.7 3946.17 -7.41592 
492 2 8.496 13.973 6.4 6.02075 -159243 -114245 -47976.9 21897.2 -22605.9 36720.7 -7.41663 
493 2 7.852 12.709 6.4 6.02311 -132799 -122096 -15081.5 15123.4 -41237.3 -13394 -7.41835 
494 2 8.625 11.52 6.4 6.02494 -147088 -98994.1 -56498.6 11085.1 -8450.23 29355.2 -7.41598 
495 2 7.981 10.256 6.4 6.02388 -144232 -125577 37822 13057 -29081.2 -27405.4 -7.42096 
520 2 10.298 20.216 6.4 6.02045 -145095 -138766 -108155 3194.77 -2371.63 16336 -7.41319 
521 2 9.655 18.952 6.4 6.02418 -138893 -144065 -102735 15433.5 -12848.6 18905.1 -7.41374 
522 2 10.427 17.763 6.4 6.02694 -151280 -111780 -97132.6 18396.6 -24151.9 17648.5 -7.41389 
523 2 9.783 16.499 6.4 6.02121 -121441 -122385 -78091.4 13676.3 -39043.2 7183.76 -7.41452 
524 2 10.556 15.31 6.4 6.02241 -154213 -130085 -82724.4 -8845.89 -28267.4 15997.3 -7.41422 
525 2 9.912 14.047 6.4 6.02603 -130180 -165285 -26549.5 -4634.01 -52656.2 -3659.23 -7.41793 
526 2 10.685 12.858 6.4 6.02281 -149858 -90638.1 -80094.8 6804.34 -19276.7 12558 -7.41463 
527 2 10.041 11.594 6.4 6.0272 -144717 -145959 37246 23931.8 -48738.2 -11955.7 -7.42171 
528 2 10.813 10.405 6.4 6.02448 -166994 -159808 -91781 -5981.05 -6409.47 8599.35 -7.41466 
190 1 12.358 19.026 3 6.02328 -133991 -128696 -108044 -25098.1 -15431.7 -6172.73 -7.41303 
192 1 12.229 16.574 3 6.02448 -140149 -188772 -78849.4 2942.94 -42648.5 -1004.71 -7.41526 
194 1 12.101 14.121 3 6.02311 -126928 -127722 -23612.7 -5055.37 -56436.3 2737.97 -7.41776 
196 1 11.972 11.669 3 6.02204 -131367 -137810 42344.8 25016.8 -52401 4091.93 -7.42149 
222 1 14.546 20.141 3 6.0218 -141429 -143784 -97063.2 -17925 3106.84 -29781.9 -7.41395 
223 1 13.774 18.952 3 6.02803 -152009 -152630 -97871.6 1950.12 -16774.1 -25336 -7.41417 
224 1 14.418 17.689 3 6.0205 -115837 -124812 -92321.4 15876.9 -24042.2 -17166.7 -7.41371 
225 1 13.645 16.499 3 6.0205 -141678 -101406 -81408.2 28870.2 -28787.6 -25846 -7.41432 
226 1 14.289 15.236 3 6.02803 -139295 -173947 -56847.3 -13921.8 -44548 -2490.48 -7.4165 
227 1 13.517 14.047 3 6.0218 -165800 -124082 -72136.4 -8819.55 -24468.2 -22805.5 -7.41536 
228 1 14.16 12.783 3 6.02045 -147910 -159068 461.961 -16303.7 -49803.6 10236.5 -7.41939 
229 1 13.388 11.594 3 6.02457 -159378 -145879 -78051.1 -11799.6 -12038.6 -17652.2 -7.41533 
230 1 14.032 10.331 3 6.02288 -147078 -163599 59446.6 2286.05 -37051.7 19531.5 -7.42288 
255 1 15.962 20.067 3 6.02311 -132108 -109688 -77966 9491.28 -13270.5 -37454.9 -7.41477 
256 1 16.606 18.803 3 6.02075 -132216 -135523 -82705.8 -38020 -292.731 -32485.1 -7.41446 
257 1 15.834 17.614 3 6.02242 -162404 -173921 -54233.9 14566.2 -28116.9 -43685.6 -7.41641 
258 1 16.477 16.351 3 6.02449 -140221 -189746 -80191.3 -6145.17 -22913.4 -14088.7 -7.4152 
259 1 15.705 15.162 3 6.02482 -158775 -117441 -35421.1 -18592 -26635.7 -43829.6 -7.41739 
260 1 16.349 13.898 3 6.02296 -125749 -122877 -48058.1 -18234.2 -35666.6 5343.3 -7.41634 
261 1 15.576 12.709 3 6.02325 -157777 -134500 -34590.4 8913.71 -13768.9 -38409.2 -7.41756 
262 1 16.22 11.446 3 6.0208 -143135 -142715 640.468 -280.185 -32279.1 22691.8 -7.41921 
263 1 15.448 10.256 3 6.01829 -154779 -141301 -53283.4 15851.8 1745.96 -27929.7 -7.41627 
288 1 18.794 19.918 3 6.02149 -93106.9 -155581 -48236 -23379.1 20572.3 -37879.3 -7.41633 
289 1 18.022 18.729 3 6.02803 -152108 -168855 -26312.4 9002.75 -29546.8 -43694.2 -7.41813 
290 1 18.666 17.466 3 6.02209 -123732 -157988 -80007 -6628.71 1263.52 -23038 -7.41471 
291 1 17.893 16.277 3 6.02121 -148473 -113831 8064.43 434.678 -29723.3 -48831.5 -7.41947 
292 1 18.537 15.013 3 6.02694 -132444 -133208 -82440 -36174 -15395.7 -4037.57 -7.41469 
293 1 17.765 13.824 3 6.02418 -167899 -141598 22511.7 -7215.56 -15460.8 -47427.4 -7.42092 
294 1 18.408 12.56 3 6.02045 -147819 -147048 -57492.8 -21881.2 -19926.7 15298 -7.41603 
295 1 17.636 11.371 3 6.02457 -161425 -164529 9218.46 -15888.2 5222.37 -39065.7 -7.42012 
321 1 20.211 19.844 3 6.02387 -100908 -154077 -14928.7 2017.06 -32199.2 -29014.9 -7.41835 
322 1 20.854 18.58 3 6.02199 -138215 -154919 -56307.4 -18907.9 21197.7 -21974.9 -7.41631 
323 1 20.082 17.391 3 6.01989 -163032 -189072 37349.6 14143.9 -34713.2 -36220.4 -7.42208 
324 1 20.725 16.128 3 6.02449 -140929 -186992 -91850.2 -1399.22 4203.99 -9866.28 -7.41453 
325 1 19.953 14.939 3 6.0272 -160284 -138942 71375.4 -18552.5 -20666.1 -38923.7 -7.42351 
326 1 20.597 13.675 3 6.02296 -126319 -112266 -96911.7 -15029.1 -6257.45 4655.04 -7.41356 
327 1 19.824 12.486 3 6.02325 -158101 -156299 71925.8 9605.86 4538.59 -36155.3 -7.42375 
328 1 20.468 11.223 3 6.0208 -143862 -125546 -78337.1 1495.38 -4037.23 18390.8 -7.41468 
348 1 23.043 19.695 3 6.02081 -139692 -126800 -22873.8 -4123.41 32726 -7332.38 -7.41787 
349 1 22.27 18.506 3 6.02417 -143916 -166568 37871.1 16748.3 -38225.5 -11531.3 -7.42141 
350 1 22.914 17.243 3 6.02163 -137491 -159384 -78407 6785.44 17913 -5669 -7.41465 
351 1 22.141 16.054 3 6.02121 -149184 -129484 91109.3 -3673.32 -28005.2 -15504.5 -7.42431 
352 1 22.785 14.79 3 6.0281 -145075 -126561 -107816 -21019.7 3954.22 -1271.41 -7.41346 
353 1 22.013 13.601 3 6.02431 -168181 -159172 112141 -8056.84 -2795.43 -17415.5 -7.42615 
354 1 22.656 12.337 3 6.01968 -114827 -135142 -107843 -13760.1 -881.279 3986.04 -7.41281 
355 1 21.884 11.148 3 6.02553 -160859 -181326 91124.4 -10779.4 27345.5 -16490.2 -7.42496 
554 2 12.487 19.101 6.4 6.02311 -133027 -103083 -108031 7833.39 -13005.1 -10367.3 -7.41296 
555 2 11.843 17.837 6.4 6.0272 -130263 -133625 -97869.9 18672.9 -30262.8 -1862.69 -7.41373 
556 2 12.615 16.648 6.4 6.02372 -119266 -161039 -92254.3 -3706.05 -26907.4 -12219.1 -7.41428 
557 2 11.972 15.385 6.4 6.01957 -134264 -160035 -54140.6 -25687.6 -51898.9 -2426.69 -7.41644 
558 2 12.744 14.195 6.4 6.01828 -161693 -125722 -80297.3 -21840.8 -23696 -12680.9 -7.41498 
559 2 12.101 12.932 6.4 6.02448 -154660 -193952 8200.73 -11748.6 -57099.4 -1387.34 -7.42043 
560 2 12.873 11.743 6.4 6.02611 -158552 -108062 -82386.2 21730.8 -11213.3 -11366 -7.41458 
561 2 12.229 10.479 6.4 6.02281 -144267 -130607 71506.4 4314.72 -44057.2 1478.59 -7.42318 
587 2 13.903 19.175 6.4 6.02463 -141578 -139535 -102766 -3320.39 -9984.75 -20536.6 -7.41396 
588 2 14.675 17.986 6.4 6.02617 -154431 -132327 -78782.5 16094.4 -22226.1 -36411.5 -7.4153 
589 2 14.032 16.722 6.4 6.0189 -90625.1 -152452 -81348.1 -227.248 -36832.2 -11992.9 -7.41433 
590 2 14.804 15.533 6.4 6.02585 -160836 -150980 -56818.6 13737.6 -24434 -37312.8 -7.41636 
591 2 14.16 14.27 6.4 6.02288 -131311 -159683 -35593.7 -17716.6 -51273 -1169.59 -7.41736 
592 2 14.933 13.081 6.4 6.02281 -151999 -97784.6 -47846.2 6809.16 -13173.9 -33601.1 -7.41622 
593 2 14.289 11.817 6.4 6.02611 -147403 -141896 22554 13173.3 -48823.5 10290.2 -7.42063 
594 2 15.061 10.628 6.4 6.02448 -168849 -165687 -57473 -13864.1 3154.23 -24919.1 -7.4166 
620 2 16.735 19.324 6.4 6.02388 -130874 -117064 -57816 17022.1 -19853.7 -45177.9 -7.4157 