ITEM: TIMESTEP
0
ITEM: NUMBER OF ATOMS
728
ITEM: BOX BOUNDS pp pp pp
0.0000000000000000e+00 2.3428746799999999e+01
0.0000000000000000e+00 4.0579779799999997e+01
0.0000000000000000e+00 1.8399999999999999e+01
ITEM: ATOMS id type x y z c_csym c_2[1] c_2[2] c_2[3] c_2[4] c_2[5] c_2[6] c_3 
32 1 0.515 9.81 3 6.01945 -159165 -152033 37669.2 13577 48169.6 -835.483 -7.42256 
33 1 1.159 8.547 3 6.02325 -151152 -128867 -88225.4 12478.9 20205.4 -9983.03 -7.41509 
34 1 0.386 7.358 3 6.02357 -139736 -133800 -19811.6 -3434.11 46478.2 5652.53 -7.41878 
35 1 1.03 6.094 3 6.02312 -138730 -96782.2 -99573.2 -9472.68 6879.95 -10215.7 -7.41434 
36 1 0.257 4.905 3 6.02106 -141350 -164215 -46627 10101.1 32720 -1763.2 -7.4168 
37 1 0.901 3.642 3 6.02424 -157220 -150674 -102537 -10040.8 18947.6 -7583.53 -7.41521 
38 1 0.129 2.453 3 6.01968 -108150 -153665 -97443.1 -8968.26 43522.3 -6379.13 -7.41406 
39 1 0.772 1.189 3 6.02378 -153532 -136182 -119638 -11210.7 23542 -17223.2 -7.41372 
40 1 0 0 3 6.02928 -154164 -132137 -128489 -14648 21.8472 -30.7274 -7.41333 
66 1 3.347 9.662 3 6.02694 -162324 -154774 -63730.3 2094.8 8976.5 -12932.8 -7.41662 
67 1 2.575 8.473 3 6.02097 -151580 -155858 -10735.1 -1166.13 53021.3 20308.7 -7.41963 
68 1 3.218 7.209 3 6.0218 -157014 -131406 -68648.1 -7081.64 14190 -25243.5 -7.41607 
69 1 2.446 6.02 3 6.02803 -139496 -173540 -52353 4100.24 31180 15752.4 -7.41742 
70 1 3.09 4.757 3 6.0205 -139959 -107002 -67653 19997.7 1739.13 -24747.6 -7.41568 
71 1 2.317 3.567 3 6.02204 -118335 -129091 -84764.9 35212.7 29108.3 -4991 -7.41492 
72 1 2.961 2.304 3 6.02417 -149722 -144314 -69660.7 3525.26 13786.5 -34357.3 -7.41566 
73 1 2.188 1.115 3 6.02302 -129854 -125602 -112765 10381.2 18835.8 -28337.7 -7.41382 
99 1 4.763 9.588 3 6.02075 -156182 -130705 -12130.1 -12269.3 39287.2 22220.2 -7.41878 
100 1 5.407 8.324 3 6.02311 -149321 -106928 -23017.3 1741.52 5019.31 -41340.3 -7.41827 
101 1 4.634 7.135 3 6.02311 -133516 -111645 -59517.9 6415.81 38763 3971.88 -7.41643 
102 1 5.278 5.871 3 6.02328 -157101 -125503 -30989.8 -27588.3 11888.5 -48329.9 -7.41808 
103 1 4.506 4.682 3 6.02448 -141816 -180185 -91950.9 14557.9 11902.3 -1846.97 -7.4154 
104 1 5.149 3.419 3 6.02494 -164100 -176146 -33129.9 -7493.08 15386.3 -31965.1 -7.41845 
105 1 4.377 2.23 3 6.02199 -140472 -144494 -105238 4449.21 3237.65 -9010.27 -7.41489 
106 1 5.02 0.966 3 6.02316 -153412 -151223 -57463.3 -24557.2 19482 -22818.7 -7.4166 
132 1 7.595 9.439 3 6.02803 -165959 -168101 22878.9 2756.7 -26860.9 -36872.8 -7.42115 
133 1 6.823 8.25 3 6.0218 -155728 -142834 -61233.1 5125.07 27130.2 -4123.03 -7.41678 
134 1 7.466 6.986 3 6.0218 -165497 -152214 29830.4 -7168.79 5092.78 -55902.8 -7.42182 
135 1 6.694 5.797 3 6.02803 -145009 -162170 -86900.3 8615.86 17792.5 -17350.7 -7.41553 
136 1 7.338 4.534 3 6.0205 -144146 -125031 3558.98 19129 23292.4 -50007.3 -7.42037 
137 1 6.565 3.344 3 6.02204 -117834 -118730 -97628.1 38055.2 760.527 -17849.6 -7.41398 
138 1 7.209 2.081 3 6.02603 -144338 -153601 -28178 -184.659 38047.4 -30386.9 -7.41859 
139 1 6.436 0.892 3 6.02306 -127811 -120502 -82150.6 10542.5 -14328.1 -14508.6 -7.41516 
165 1 9.011 9.365 3 6.02328 -156177 -121161 -80822.2 -16522.3 1500.12 6908.51 -7.41542 
166 1 9.655 8.101 3 6.02311 -151239 -125060 85036 -2617.35 -13802.3 -22708 -7.42429 
167 1 8.882 6.912 3 6.02311 -134951 -111853 -99703.5 6685.84 11590.1 -994.188 -7.41446 
168 1 9.526 5.648 3 6.02075 -160576 -143238 76948.7 -24225.6 9146.55 -32651.9 -7.42425 
169 1 8.754 4.459 3 6.02242 -146262 -186200 -93786.1 18957.8 2536.19 -15033.4 -7.41482 
170 1 9.397 3.196 3 6.02449 -164894 -194687 29187.4 5344.2 37081.5 -33562.3 -7.42212 
171 1 8.625 2.007 3 6.02482 -129415 -136243 -74327.6 -10070.8 -4198.02 -24184.4 -7.41588 
172 1 9.269 0.743 3 6.02301 -133265 -130880 -27690.6 -12928.8 39591.1 -34643.3 -7.41813 
199 1 11.071 8.027 3 6.0218 -153664 -136862 -119886 -6042.11 4704.42 4004.5 -7.41362 
200 1 11.714 6.763 3 6.02097 -163961 -159977 115586 -7160.62 28.221 58.129 -7.42634 
201 1 10.942 5.574 3 6.02694 -143472 -167637 -119839 414.011 -5784.06 2105.91 -7.41376 
202 1 11.586 4.311 3 6.02241 -152524 -166107 85100.1 9109.61 26518.5 -622.05 -7.42423 
203 1 10.813 3.122 3 6.02121 -126647 -125230 -81021.1 -618.142 -6701.58 -2137.68 -7.41521 
204 1 11.457 1.858 3 6.02638 -146553 -146168 22807 -20465 45370.5 -4873.42 -7.42079 
205 1 10.685 0.669 3 6.02519 -142270 -167625 -39709.7 955.682 -19378 -8841.79 -7.41785 
367 2 0.257 8.621 6.4 6.01781 -160656 -206247 3674.97 -5922.9 54996.4 4695.86 -7.42115 
368 2 0.386 6.169 6.4 6.02668 -136639 -154920 -32878.1 19782.1 35434.7 2703.43 -7.41808 
369 2 0.515 3.716 6.4 6.02668 -135188 -168609 -69790.2 -8792.32 36630.5 5232.01 -7.416 
370 2 0.644 1.263 6.4 6.02077 -124632 -125589 -119437 -18590.3 26689.9 -11829 -7.41332 
371 2 0 0 6.4 6.02653 -159371 -166091 -128769 10528.1 5.19265 -48.8255 -7.41364 
396 2 2.317 9.959 6.4 6.02655 -156940 -179636 29714.2 6854.1 50908.4 23569.8 -7.42216 
397 2 1.673 8.696 6.4 6.0216 -149348 -132943 -86724.3 -5033.39 23884.2 -6727.92 -7.41495 
398 2 2.446 7.507 6.4 6.02074 -128870 -128093 -31079.7 12032.8 47683.5 13904.2 -7.41788 
399 2 1.802 6.243 6.4 6.02422 -140253 -95540.6 -91907.3 6005.46 7548.88 -9388.58 -7.41476 
400 2 2.575 5.054 6.4 6.02311 -123386 -121419 -67668.3 10166 22367.4 10900.9 -7.41593 
401 2 1.931 3.79 6.4 6.02367 -156147 -115910 -84651.5 18419 18848.9 -22677.4 -7.41522 
402 2 2.703 2.601 6.4 6.02416 -142236 -188769 -102666 6044.46 16091.7 -12555.7 -7.41516 
403 2 2.06 1.338 6.4 6.02396 -158957 -175675 -97614.3 -9850.48 27147.9 -34503.6 -7.41478 
404 2 2.832 0.149 6.4 6.02383 -141801 -141575 -100347 29413.5 -4418.75 -42519.4 -7.41436 
429 2 3.733 10.033 6.4 6.02113 -143850 -109082 -61519.1 17624.9 17146.2 -21441.7 -7.41628 
430 2 4.506 8.844 6.4 6.02241 -144845 -153723 -23009.4 1705.77 38355.1 16260.7 -7.41821 
431 2 3.862 7.581 6.4 6.02586 -156271 -155353 -59577.3 7005.56 15910.3 -35612.8 -7.41705 
432 2 4.634 6.392 6.4 6.02097 -140692 -146785 -68494.2 16650.8 28913.9 300.147 -7.41618 
433 2 3.991 5.128 6.4 6.0218 -160615 -134701 -52398.8 2441.64 1971.37 -34879.5 -7.41693 
434 2 4.763 3.939 6.4 6.02803 -136999 -163623 -99602.1 13812.2 12186.3 -880.812 -7.41511 
435 2 4.119 2.676 6.4 6.0205 -141563 -113206 -46588.1 -36791.3 17950.8 -27471.5 -7.41638 
436 2 4.892 1.486 6.4 6.01998 -119129 -121709 -98414.8 -14919.8 -3602.08 -12826.3 -7.41447 
437 2 4.248 0.223 6.4 6.02754 -153084 -170135 -79447.6 -4342.32 15191.2 -19331.9 -7.41594 
463 2 5.922 8.919 6.4 6.01829 -158077 -150043 -12177.5 -14386.8 502.798 -45161.7 -7.41895 
464 2 6.694 7.729 6.4 6.0208 -140737 -135716 -63642.3 3132.27 15674.8 -1373.04 -7.41617 
465 2 6.05 6.466 6.4 6.02325 -155834 -146540 -10672.8 -12852.9 8905.59 -56071.4 -7.41959 
466 2 6.823 5.277 6.4 6.02311 -123415 -115900 -88487.1 16323.9 18800.2 -12531.3 -7.41464 
467 2 6.179 4.013 6.4 6.02328 -159346 -128137 -19588.1 13273.8 18252.4 -43154.5 -7.41887 
468 2 6.951 2.824 6.4 6.02448 -139017 -181543 -95550 5177.39 8402.19 -14763.8 -7.41512 
469 2 6.308 1.561 6.4 6.02396 -158728 -179921 -42906.2 -16293.5 27190.7 -23842 -7.41776 
470 2 7.08 0.372 6.4 6.02383 -135640 -140612 -70828.2 26541.5 -20252.4 -18788.1 -7.41599 
496 2 8.754 9.067 6.4 6.02288 -146612 -144121 -80463.8 1786.8 -8002.73 12965.6 -7.41575 
497 2 8.11 7.804 6.4 6.02457 -163714 -174687 52111.6 12623.4 -7460.66 -39835.3 -7.42278 
498 2 8.882 6.615 6.4 6.02045 -146116 -148803 -99490.8 19640.3 6586.86 2351.2 -7.41451 
499 2 8.239 5.351 6.4 6.0218 -165572 -154707 37531 4226.88 24876.8 -41273.5 -7.42266 
500 2 9.011 4.162 6.4 6.02803 -140216 -170848 -93880.5 14697.6 5749.76 -16156.9 -7.41514 
501 2 8.367 2.899 6.4 6.0205 -140449 -126881 -297.636 -33766.4 42170.6 -41259 -7.41994 
502 2 9.14 1.709 6.4 6.02096 -117568 -131408 -70436.3 -20938.8 -6865.26 -31835 -7.41545 
503 2 8.496 0.446 6.4 6.02491 -137498 -163038 -42369.3 -14118.5 29239.1 -31689.7 -7.41764 
529 2 10.17 9.142 6.4 6.01829 -158695 -165632 71164.8 -22030.5 -34821.3 -19767.2 -7.4239 
530 2 10.942 7.952 6.4 6.0208 -143288 -127276 -119902 -6934.73 2370.19 5939.85 -7.41332 
531 2 10.298 6.689 6.4 6.02326 -157266 -161493 103025 -12261.2 4660.59 -13912.2 -7.42572 
532 2 11.071 5.5 6.4 6.02311 -126902 -117100 -120115 7621.91 -6258.29 -892.759 -7.41325 
533 2 10.427 4.236 6.4 6.02328 -158269 -144828 70922.1 20901.3 34553.7 -20365.2 -7.42372 
534 2 11.199 3.047 6.4 6.02449 -144044 -193403 -80493.4 -2955.31 -7193.26 -13418.1 -7.41612 
535 2 10.556 1.784 6.4 6.02494 -154878 -195953 13696 -7702.1 45526.5 -20990.1 -7.42099 
536 2 11.328 0.595 6.4 6.02248 -141953 -169596 -36513.1 3866.69 -22610.7 -15962.2 -7.41804 
198 1 11.843 9.216 3 6.02803 -161740 -179875 76866.8 -2752.64 -32844.8 8436.64 -7.42503 
231 1 13.259 9.142 3 6.02365 -142730 -106008 -99799.8 -12471.6 -6612.37 -9487.48 -7.41423 
232 1 13.903 7.878 3 6.02402 -149675 -129286 84962.1 -5859.86 -12853 23367.9 -7.42396 
233 1 13.13 6.689 3 6.02326 -137730 -146839 -119884 6102.67 1081.28 -6096.11 -7.41369 
234 1 13.774 5.426 3 6.0208 -155491 -148285 76983 11564.7 23869.7 24192.5 -7.42425 
235 1 13.002 4.236 3 6.01828 -136201 -159392 -99648.3 17856.6 -4883.05 10495.2 -7.41458 
236 1 13.645 2.973 3 6.02448 -165832 -192624 29867.5 13208.2 45852.6 32274.3 -7.42226 
237 1 12.873 1.784 3 6.0272 -132509 -145106 -61372.8 -23703.7 -10005.6 25594 -7.41658 
238 1 13.517 0.52 3 6.02301 -132514 -132822 -23001.8 -3601.45 33307.2 25072.7 -7.41828 
264 1 16.091 8.993 3 6.02603 -170826 -182687 23054.4 2370.95 -18443.7 41727 -7.42154 
265 1 15.319 7.804 3 6.0238 -151356 -144143 -80812.7 -18395.9 5209.33 -4791.2 -7.41594 
266 1 15.962 6.54 3 6.02045 -166651 -152150 28872 -8587.47 10539.8 48924.7 -7.42167 
267 1 15.19 5.351 3 6.02457 -138417 -170674 -93844.4 -21681.2 11790.7 9821.05 -7.41492 
268 1 15.834 4.088 3 6.02288 -152849 -154446 3844.37 14244.8 31570.8 45272.2 -7.42081 
269 1 15.061 2.899 3 6.02281 -122186 -120025 -86775.4 -14990.1 6087.4 24067.6 -7.41474 
270 1 15.705 1.635 3 6.02638 -149316 -131385 -31186.5 -11489.5 35893.2 34370.5 -7.41829 
271 1 14.933 0.446 3 6.02519 -142434 -158964 -59653 -9383.45 -22808 31526.3 -7.41683 
296 1 18.28 10.108 3 6.02288 -148828 -146541 -36536.5 -5164.95 2475.99 27566.6 -7.41786 
297 1 17.507 8.919 3 6.02388 -141664 -115767 -39645 -18949 17403.1 -12434.3 -7.417 
298 1 18.151 7.655 3 6.02494 -143990 -111850 -27788 -11123.5 10229.8 51515.2 -7.41801 
299 1 17.378 6.466 3 6.02325 -135233 -148044 -74424.2 301.528 23032.8 8471.75 -7.41583 
300 1 18.022 5.203 3 6.01952 -151116 -130917 -28084.7 17545.5 7372.72 48137.5 -7.41843 
301 1 17.25 4.013 3 6.01828 -131165 -150276 -97392.9 13807 15087.2 9580.69 -7.41457 
302 1 17.893 2.75 3 6.02448 -168232 -175208 -33136 21213.3 20055.4 29279 -7.41838 
303 1 17.121 1.561 3 6.0272 -131462 -130185 -91927.6 -31152 -4375.97 11236.9 -7.41492 
304 1 17.765 0.297 3 6.02301 -136854 -117079 -67433.6 4213.32 20574.3 13938.8 -7.41596 
329 1 19.696 10.033 3 6.01828 -155828 -158490 13760.6 15804.4 40940.6 -28977.1 -7.42037 
330 1 20.339 8.77 3 6.02448 -166512 -166654 -70698.5 2693.18 24170.5 21866.8 -7.41663 
331 1 19.567 7.581 3 6.02611 -138873 -135770 -42453.9 -28106.5 42076.5 -9486.99 -7.41757 
332 1 20.211 6.317 3 6.02282 -143013 -99835 -70898.8 -5639.18 6128.9 26928.2 -7.41555 
333 1 19.438 5.128 3 6.02474 -123230 -154698 -82137 -2558.49 19702.3 -5141.91 -7.41545 
334 1 20.082 3.865 3 6.02288 -150617 -140338 -57374.9 13876.3 10078.7 28328.4 -7.4162 
335 1 19.309 2.676 3 6.02281 -122397 -117525 -105562 -17003 6209.08 7344.96 -7.41431 
336 1 19.953 1.412 3 6.02638 -151147 -124998 -69722.3 -10677.3 22887.1 29163.9 -7.41574 
337 1 19.181 0.223 3 6.02519 -146766 -154858 -84705.3 -15754.7 -10149.1 27703.9 -7.41555 
356 1 22.528 9.885 3 6.02106 -161637 -133518 -93689.2 2786.77 16840.8 3160.29 -7.415 
357 1 21.755 8.696 3 6.02281 -138056 -129144 -364.403 -8614.57 56813.7 -15858 -7.41994 
358 1 22.399 7.432 3 6.02611 -160046 -110926 -95546.7 -20870.3 16960.3 141.046 -7.41486 
359 1 21.627 6.243 3 6.02377 -147144 -192672 -42831.7 6330.72 34216.2 -11569.4 -7.41794 
360 1 22.27 4.98 3 6.01893 -167958 -130101 -98434.7 25254 9288.6 9560.97 -7.41508 
361 1 21.498 3.79 3 6.01892 -134224 -159900 -79346.3 16679.1 24418 -3420.08 -7.41573 
362 1 22.141 2.527 3 6.02481 -133276 -167452 -100438 9655.27 34613.4 25041.1 -7.41469 
363 1 21.369 1.338 3 6.02681 -134726 -136437 -112820 -29572.8 15047.9 30537.6 -7.41402 
364 1 22.013 0.074 3 6.02236 -146685 -116298 -119400 -3539.75 3102.69 29164.3 -7.41359 
562 2 13.002 9.29 6.4 6.02288 -149194 -137272 -99602.4 -9013.95 -1241.36 -6890.11 -7.41455 
563 2 12.358 8.027 6.4 6.02457 -162765 -180146 103042 9086.97 -14456.9 2984.46 -7.42576 
564 2 13.13 6.838 6.4 6.02045 -148593 -143142 -119946 2699.47 3839.79 -5009.24 -7.4135 
565 2 12.487 5.574 6.4 6.0218 -164227 -160535 103013 7859.57 9793.82 10961.6 -7.42564 
566 2 13.259 4.385 6.4 6.02803 -141195 -170366 -99502 -6083.92 -5288.16 4528.64 -7.41512 
567 2 12.615 3.122 6.4 6.0205 -138924 -135911 52107.2 -25662.9 38251.2 13574 -7.42214 
568 2 13.388 1.932 6.4 6.02096 -117314 -133945 -63693.9 -31814.3 -6775.39 14229.8 -7.41595 
569 2 12.744 0.669 6.4 6.02355 -138195 -173581 -12043.6 -7292.77 38846.9 22921.4 -7.41897 
595 2 14.418 9.365 6.4 6.01828 -159437 -161983 52021.1 -27962.8 -30718.6 26393.2 -7.42252 
596 2 15.19 8.175 6.4 6.0208 -146071 -131908 -80623.1 -20268.7 15228.6 418.217 -7.41551 
597 2 14.546 6.912 6.4 6.02325 -158006 -159124 71021.8 -12341.2 214.63 40116.3 -7.4241 
598 2 15.319 5.723 6.4 6.02402 -128523 -118141 -93851.7 -9212.36 11129.9 13108.8 -7.4143 
599 2 14.675 4.459 6.4 6.02365 -145367 -127220 37687.8 10348.6 23307.9 42181.4 -7.42243 
600 2 15.448 3.27 6.4 6.0234 -128999 -152110 -88394.8 -23822.4 1478.47 22570.1 -7.41496 
601 2 14.804 2.007 6.4 6.02333 -150286 -176745 -10933.7 12661.9 44085.9 35761.2 -7.41957 
602 2 15.576 0.818 6.4 6.01995 -143676 -156560 -68771.5 -4377.25 -14647.5 24854.1 -7.41581 
628 2 17.25 9.513 6.4 6.02288 -149643 -145680 -36514.5 -18945.5 25220.8 -11584.7 -7.41786 
629 2 16.606 8.25 6.4 6.02457 -163548 -167663 13564.6 4456.03 -4612.71 49930.5 -7.42063 
630 2 17.378 7.061 6.4 6.02045 -149875 -143654 -70507 -3807.96 31057.3 9958.43 -7.41607 
631 2 16.735 5.797 6.4 6.02618 -165580 -144322 -343.463 11059.1 14719.9 57109.4 -7.42078 
632 2 17.507 4.608 6.4 6.02617 -139829 -138543 -95359.1 -4807.87 8653.12 14614.9 -7.41517 
633 2 16.864 3.344 6.4 6.0189 -161244 -147432 -19740.9 20330.1 28318.5 37408.8 -7.41903 
634 2 17.636 2.155 6.4 6.02209 -138627 -160742 -99468.9 -3617.86 -5386.53 11039.5 -7.41495 
635 2 16.992 0.892 6.4 6.02195 -132748 -127750 -52136 -13810.2 29233.7 19200.3 -7.41658 
661 2 18.666 9.588 6.4 6.01829 -158654 -143764 -39501.7 -33057.2 -1979.4 21255.5 -7.41758 
662 2 19.438 8.398 6.4 6.01952 -141758 -139032 -27742.4 -21035.5 49734.8 -16907.1 -7.41827 
663 2 18.794 7.135 6.4 6.02325 -152514 -139015 -42479 -12996.7 12825.4 41132.8 -7.41761 
664 2 19.567 5.946 6.4 6.02494 -123226 -118453 -70813.6 -2946.55 26442.4 -8217.16 -7.41571 
665 2 18.923 4.682 6.4 6.02402 -145139 -109008 -42702.1 13351.5 7070.53 35489 -7.41692 
666 2 19.696 3.493 6.4 6.0234 -128999 -152097 -98471.3 -23830.9 12845.3 3317.31 -7.41495 
667 2 19.052 2.23 6.4 6.02209 -155536 -163921 -46613 20180 14777.7 29251.4 -7.41688 
668 2 19.824 1.041 6.4 6.01758 -145387 -155970 -102731 -6829.73 2923.47 20186.9 -7.41487 
694 2 21.498 9.736 6.4 6.02531 -148161 -165488 29067.6 -14595.1 47605.6 -15396.7 -7.42165 
695 2 20.854 8.473 6.4 6.02241 -147003 -136921 -74445.9 -10213.4 18843.4 15755.5 -7.41544 
696 2 21.627 7.284 6.4 6.01992 -131539 -127655 -28156.2 1062.12 45282.5 -17695.7 -7.41791 
697 2 20.983 6.02 6.4 6.02655 -149326 -112149 -82154.5 22221.2 5382.35 19581.7 -7.41566 
698 2 21.755 4.831 6.4 6.02418 -141584 -154904 -57314.4 245.791 29590.9 -5421.41 -7.41649 
699 2 21.112 3.567 6.4 6.01851 -161958 -133836 -79394 15297.1 9203.22 22888.1 -7.41552 
700 2 21.884 2.378 6.4 6.02365 -141480 -170863 -100546 -2963.89 38895.4 17499.3 -7.41471 
701 2 21.24 1.115 6.4 6.02195 -135857 -123434 -97386.6 -18245.7 16272.6 40893.7 -7.41426 
725 2 22.914 9.81 6.4 6.0203 -160243 -120726 -94022.1 22264.9 14398.2 5339.01 -7.41478 
726 2 23.043 7.358 6.4 6.02234 -165422 -168528 -97609.8 -7758.84 15825.4 8267.04 -7.4151 
727 2 23.171 4.905 6.4 6.02368 -148484 -102107 -105516 6985.25 9464.21 1768.68 -7.41454 
728 2 23.3 2.453 6.4 6.02117 -143591 -115369 -112626 -22872.1 34009.2 -2256 -7.41376 
24 1 1.03 19.621 3 6.02622 -164543 -194109 -12221.1 8653.92 -38823 22876.9 -7.41971 
25 1 1.673 18.358 3 6.01635 -87606.1 -163587 -63833.2 28205.9 6775.08 14201.3 -7.41595 
26 1 0.901 17.168 3 6.01945 -158599 -152442 51959.5 12335.9 -38268 13628.6 -7.42255 
27 1 1.545 15.905 3 6.02325 -134308 -153531 -99417.1 21145.3 5281.69 4619.9 -7.41472 
28 1 0.772 14.716 3 6.02227 -160201 -128803 103143 -6190.89 -9654.5 11025.1 -7.42548 
29 1 1.416 13.452 3 6.02681 -141472 -127887 -119987 -13975.9 -3882.96 -5017.12 -7.41347 
30 1 0.644 12.263 3 6.02481 -137154 -194477 103046 8173.63 14331.2 2967.29 -7.42569 
31 1 1.287 11 3 6.01892 -156275 -138856 -99560.3 24697.7 1362.26 -6785.99 -7.41448 
58 1 3.862 19.472 3 6.02482 -135531 -132723 -68551.1 -12466 14699 24851.8 -7.41577 
59 1 3.09 18.283 3 6.02259 -109404 -191833 -10920.9 -4651.75 -44043.5 35715.3 -7.41942 
60 1 3.733 17.02 3 6.02494 -141868 -181795 -88320.1 15323 -1427.12 22496.1 -7.41551 
61 1 2.961 15.831 3 6.02199 -164636 -154922 37578.5 -12863.6 -23428.1 42126.3 -7.42275 
62 1 3.604 14.567 3 6.02418 -145164 -145478 -93771.8 6457.07 -11180.1 13050.1 -7.41499 
63 1 2.832 13.378 3 6.02694 -161634 -139371 70891.2 -20729.1 -293.452 40107.9 -7.42397 
64 1 3.476 12.114 3 6.02121 -141496 -111009 -80622.2 4255.43 -15270.2 452.214 -7.41532 
65 1 2.703 10.925 3 6.02241 -153689 -161265 51972.5 13195.2 30930.6 26375.3 -7.42232 
91 1 5.278 19.398 3 6.02803 -150633 -164179 -52374.8 -16285.1 -29196.2 19151.2 -7.41721 
92 1 5.922 18.135 3 6.0205 -119181 -116548 -99563.7 38002.3 5400.6 11042.8 -7.41432 
93 1 5.149 16.945 3 6.02204 -140876 -122957 -19791.5 15496.6 -28148.4 37445.5 -7.41844 
94 1 5.793 15.682 3 6.02417 -130529 -146389 -95457.5 23898.9 -8646.7 14625.2 -7.41471 
95 1 5.02 14.493 3 6.02296 -148915 -117162 -203.001 -9057.09 -14608.8 57144 -7.42008 
96 1 5.664 13.229 3 6.02482 -142655 -127624 -70506 -8238 -31011.4 9949.9 -7.41613 
97 1 4.892 12.04 3 6.02448 -170961 -183954 13672.6 14447 4503.77 49926.5 -7.42082 
98 1 5.535 10.777 3 6.02242 -166221 -177964 -36477.3 18032.3 -25145.2 -11556.8 -7.41798 
124 1 8.11 19.249 3 6.02328 -139447 -132071 -102573 -9126.17 -2922.05 20252.5 -7.41458 
125 1 7.338 18.06 3 6.02448 -160661 -178917 -46616.9 -8116.63 -14769.6 29270.8 -7.41718 
126 1 7.981 16.797 3 6.02448 -142269 -181261 -98428.2 16309 -12838.8 3322.13 -7.41551 
127 1 7.209 15.608 3 6.02199 -161251 -137200 -42772.9 -18442.5 -7133.49 35446.4 -7.41757 
128 1 7.852 14.344 3 6.02149 -92885.1 -149007 -70816.9 -631.982 -26430.6 -8200.32 -7.41569 
129 1 7.08 13.155 3 6.02932 -161403 -155505 -42581.4 -2613.51 -12788 41116.3 -7.41782 
130 1 7.724 11.892 3 6.02204 -134548 -122581 -27845 36074.7 -49754.1 -16902.5 -7.41786 
131 1 6.951 10.702 3 6.0205 -143542 -112290 -39636.7 35921.7 2104.09 21249.4 -7.4172 
157 1 9.526 19.175 3 6.02803 -153945 -160132 -97519.3 -11970.9 -16305.2 40756.2 -7.41485 
158 1 10.17 17.912 3 6.0205 -122582 -125793 -100588 35583 -38946.7 17399.2 -7.41412 
159 1 9.397 16.722 3 6.02204 -141664 -107544 -79373.1 20304 -9162.88 22911.1 -7.41515 
160 1 10.041 15.459 3 6.02932 -140196 -175697 -57513.5 3425.19 -29485.9 -5432.2 -7.41676 
161 1 9.269 14.27 3 6.02149 -108117 -130672 -82137.8 -12716.7 -5350.81 19626.8 -7.41513 
162 1 9.912 13.006 3 6.02199 -145262 -157943 -28066.7 -4504.63 -45369.4 -17718.8 -7.41861 
163 1 9.14 11.817 3 6.02448 -163097 -163720 -74450.7 7495.7 -18896.3 15753.6 -7.41626 
164 1 9.783 10.554 3 6.02448 -162430 -194730 29139.1 8093.89 -47589.5 -15397.8 -7.4221 
191 1 11.586 17.837 3 6.02448 -163903 -167737 -112937 2776.84 -34021.5 -2282.38 -7.41449 
193 1 11.457 15.385 3 6.02328 -154252 -111146 -105553 -24473.7 -9431.22 1770.99 -7.41452 
195 1 11.328 12.932 3 6.02417 -146665 -129335 -97357.9 11467 -15835.4 8230.26 -7.41457 
197 1 11.199 10.479 3 6.0205 -142843 -102710 -93939.9 26108.7 -14300.5 5261.13 -7.41427 
365 2 0 13.527 6.4 6.02345 -153338 -138162 115473 8314.92 8.02335 58.7102 -7.42578 
366 2 0.129 11.074 6.4 6.02397 -153586 -134487 76935.2 4701.33 32986.6 8508.42 -7.42438 
388 2 1.802 19.77 6.4 6.02121 -145541 -157636 -23222.9 4500.15 -33239.8 25059 -7.41859 
389 2 1.159 18.506 6.4 6.02219 -103789 -160861 -61546.7 11579.2 10043.5 25560.9 -7.41638 
390 2 1.931 17.317 6.4 6.0286 -159907 -177174 30050.9 -465.641 -45840.7 32247.5 -7.42211 
391 2 1.287 16.054 6.4 6.02116 -132211 -127664 -99562.3 -19520.8 4925.97 10551.3 -7.41442 
392 2 2.06 14.864 6.4 6.0205 -146025 -132432 77003.2 -27903.4 -23771.6 24229.2 -7.42404 
393 2 1.416 13.601 6.4 6.02835 -146111 -163069 -119758 8899.68 -1057.61 -6086.18 -7.41399 
394 2 2.188 12.412 6.4 6.0218 -164868 -158977 85132 9014.67 12688.8 23398.4 -7.42455 
395 2 1.545 11.148 6.4 6.0218 -160171 -135115 -99649.3 12283 6634.07 -9444.57 -7.41461 
421 2 3.218 19.844 6.4 6.02326 -132225 -154551 -59443.1 -5909.75 22900.5 31576.8 -7.41678 
422 2 3.991 18.655 6.4 6.02311 -138553 -117413 -31226.3 -4837.35 -35907.9 34369.4 -7.418 
423 2 3.347 17.391 6.4 6.02328 -131861 -135820 -86932.4 31636.8 -6096.88 24053.6 -7.41494 
424 2 4.119 16.202 6.4 6.02448 -168007 -186070 3578.62 -11410.9 -31601.8 45212.2 -7.42116 
425 2 3.476 14.939 6.4 6.02448 -143877 -186508 -93743.7 7890.17 -11788.6 9763.23 -7.41508 
426 2 4.248 13.75 6.4 6.02328 -161194 -136438 29052 22357.7 -10496.9 48939.3 -7.4215 
427 2 3.604 12.486 6.4 6.02311 -137457 -112306 -80862.8 15632.5 -5197.88 -4771.06 -7.41547 
428 2 4.377 11.297 6.4 6.02402 -149499 -119300 22705.9 11458.5 18483.9 41697 -7.4204 
454 2 6.05 19.993 6.4 6.02045 -149860 -143671 -67712.3 -3814.97 -20552.9 13928.5 -7.41605 
455 2 5.407 18.729 6.4 6.0218 -137250 -145302 -91974.4 17397.6 4376.19 11251 -7.41512 
456 2 6.179 17.54 6.4 6.02803 -162747 -159380 -32899.5 -7433.07 -19980.8 29335.8 -7.41823 
457 2 5.535 16.277 6.4 6.0205 -116044 -118746 -97603.9 -16642.9 -15086.5 9554.84 -7.41419 
458 2 6.308 15.087 6.4 6.0205 -143917 -114495 -27942.3 -32565.5 -7302.84 48126.4 -7.41802 
459 2 5.664 13.824 6.4 6.02803 -144919 -163835 -74359.7 16349.7 -23104.5 8499.25 -7.41604 
460 2 6.436 12.635 6.4 6.0218 -161379 -141196 -27891.2 12374.3 -10290.7 51582.7 -7.41837 
461 2 5.793 11.371 6.4 6.02489 -155880 -143509 -39632.7 20174.4 -17379.5 -12381.2 -7.41793 
462 2 6.565 10.182 6.4 6.02603 -167520 -174045 -36485.4 2380.06 -2517.3 27611.8 -7.4186 
487 2 7.466 20.067 6.4 6.02326 -136563 -150419 -84432.6 459.075 10149.2 27681.2 -7.4155 
488 2 8.239 18.878 6.4 6.02296 -140383 -111027 -69747.8 -5652.2 -22890 29161 -7.41544 
489 2 7.595 17.614 6.4 6.02482 -130331 -132974 -105620 31914.1 -6192.47 7326.88 -7.41476 
490 2 8.367 16.425 6.4 6.02449 -167836 -170608 -57573.1 -15889.8 -10086.5 28251.5 -7.41678 
491 2 7.724 15.162 6.4 6.02242 -142025 -184826 -82029.1 1889.92 -19696 -5152.52 -7.41556 
492 2 8.496 13.973 6.4 6.02075 -150284 -116352 -70747 20707.8 -6096.85 26938.1 -7.41597 
493 2 7.852 12.709 6.4 6.02311 -133040 -116875 -42671.6 12625.1 -41982 -9493.01 -7.41726 
494 2 8.625 11.52 6.4 6.02494 -143114 -101626 -70545 12474.4 -24075.1 21892.3 -7.41594 
495 2 7.981 10.256 6.4 6.02388 -145743 -123512 13555.5 13778.6 -40905 -28969.4 -7.41979 
520 2 10.298 20.216 6.4 6.02045 -148580 -143137 -119533 2717.26 -3162.74 29018.8 -7.41349 
521 2 9.655 18.952 6.4 6.02418 -142410 -148871 -112679 16444.9 -15053.3 30546.5 -7.41432 
522 2 10.427 17.763 6.4 6.02694 -156251 -115421 -100439 18948.8 -34532.6 25150.9 -7.41458 
523 2 9.783 16.499 6.4 6.02121 -124212 -124872 -79528 12677.6 -24421.9 -3522.12 -7.41515 
524 2 10.556 15.31 6.4 6.02241 -148695 -133772 -98342.1 -9589.69 -9296.59 9503.68 -7.41448 
525 2 9.912 14.047 6.4 6.02603 -127954 -166114 -42910.7 -7667.6 -34202.6 -11561.7 -7.41745 
526 2 10.685 12.858 6.4 6.02281 -138976 -94604.2 -95446.4 6180.95 -17003.9 117.797 -7.41457 
527 2 10.041 11.594 6.4 6.0272 -143808 -145994 -341.968 22234.6 -56800.4 -15868.6 -7.42048 
528 2 10.813 10.405 6.4 6.02448 -169071 -163248 -93704.7 -6204.34 -16857.8 3087.77 -7.41532 
190 1 12.358 19.026 3 6.02328 -137731 -132818 -119345 -25731.4 -26846.5 -11893.4 -7.41333 
192 1 12.229 16.574 3 6.02448 -144039 -193460 -69769.7 2995.76 -36628.5 5279.91 -7.4161 
194 1 12.101 14.121 3 6.02311 -124365 -131642 -32967.9 -4084.26 -35402.1 2735.77 -7.41757 
196 1 11.972 11.669 3 6.02204 -129540 -139537 3602.31 25520.4 -54948.8 4651.83 -7.42038 
222 1 14.546 20.141 3 6.0218 -144930 -148893 -100362 -18225.4 4402.99 -42437.9 -7.41464 
223 1 13.774 18.952 3 6.02803 -156680 -157399 -97422.5 1675.89 -27228.2 -34428.3 -7.41485 
224 1 14.418 17.689 3 6.0205 -119129 -127052 -102676 16346.9 -16096.8 -12613.4 -7.41436 
225 1 13.645 16.499 3 6.0205 -142647 -104899 -84477.8 29295.7 -18903 -22682.9 -7.41492 
226 1 14.289 15.236 3 6.02803 -139074 -172827 -67719.9 -10365 -22300.7 10853.8 -7.41646 
227 1 13.517 14.047 3 6.0218 -155058 -127519 -91971.4 -7779.61 -7509.36 -9394.86 -7.41512 
228 1 14.16 12.783 3 6.02045 -146305 -157438 -30964.4 -13346.4 -47787.9 13873.5 -7.41825 
229 1 13.388 11.594 3 6.02457 -154687 -149430 -86860 -11866.1 -23947.6 -6760.41 -7.41558 
230 1 14.032 10.331 3 6.02288 -147760 -162621 29535.9 3061.04 -51027.3 23519.9 -7.42172 
255 1 15.962 20.067 3 6.02311 -135540 -111521 -79385.6 8877.45 -15245 -19410.7 -7.4154 
256 1 16.606 18.803 3 6.02075 -134248 -131646 -98249.7 -34399.8 3605.32 -12783.6 -7.41472 
257 1 15.834 17.614 3 6.02242 -166045 -175612 -46473.3 16342.1 -17954.5 -27433 -7.41694 
258 1 16.477 16.351 3 6.02449 -141007 -182025 -99505.4 -20.2659 -12236.2 -865.137 -7.41514 
259 1 15.705 15.162 3 6.02482 -154569 -118622 -52393.2 -15924.7 -1955.78 -34883 -7.41688 
260 1 16.349 13.898 3 6.02296 -126100 -115644 -68653.9 -14031.6 -28865.2 320.644 -7.41568 
261 1 15.576 12.709 3 6.02325 -150551 -136220 -59364.1 8025.63 -15932.1 -35543.2 -7.41678 
262 1 16.22 11.446 3 6.0208 -145116 -138617 -23002.3 -722.888 -38342.9 16311.3 -7.41823 
263 1 15.448 10.256 3 6.01829 -156104 -143689 -61436.6 13757.4 -17179.2 -21433.4 -7.41664 
288 1 18.794 19.918 3 6.02149 -93462.2 -148346 -71010.2 -19177 20279.4 -18749.9 -7.41568 
289 1 18.022 18.729 3 6.02803 -154786 -164757 -42945.3 8811.49 -27158 -23829.3 -7.41765 
290 1 18.666 17.466 3 6.02209 -124521 -150252 -95561.7 -502.983 -8357.16 -14761 -7.41465 
291 1 17.893 16.277 3 6.02121 -149691 -112332 -19771.2 3385.57 -18246.9 -43155.2 -7.41865 
292 1 18.537 15.013 3 6.02694 -134478 -129350 -88568.4 -32561.6 -18751.9 -12531.9 -7.41495 
293 1 17.765 13.824 3 6.02418 -164924 -142460 -10954.7 -6455.5 -8848.03 -56033.4 -7.41962 
294 1 18.408 12.56 3 6.02045 -151375 -146281 -63522.7 -22063.7 -15611 -1260.91 -7.41635 
295 1 17.636 11.371 3 6.02457 -160620 -164463 -12071.9 -18948.8 -473.521 -45120.5 -7.41921 
321 1 20.211 19.844 3 6.02387 -99211.7 -150806 -42468.2 -1587.47 -29254.2 -31652.2 -7.41727 
322 1 20.854 18.58 3 6.02199 -137992 -153822 -70385.2 -15356.8 6889.73 -31815.1 -7.41627 
323 1 20.082 17.391 3 6.01989 -164301 -186928 -277.768 13701.4 -42153.4 -41270.5 -7.42085 
324 1 20.725 16.128 3 6.02449 -144221 -189221 -93729.7 -923.109 -5792.26 -16132.2 -7.41518 
325 1 19.953 14.939 3 6.0272 -160098 -139005 37574.3 -17986.5 -24879.9 -41261.6 -7.4225 
326 1 20.597 13.675 3 6.02296 -129820 -117386 -99760.2 -15334.2 -6678.71 2273.7 -7.41425 
327 1 19.824 12.486 3 6.02325 -157465 -156764 52065.6 9145.29 7477.32 -39867 -7.42273 
328 1 20.468 11.223 3 6.0208 -148289 -129671 -80402.7 1119.71 8022.85 12981.2 -7.41553 
348 1 23.043 19.695 3 6.02081 -137122 -130732 -36447 -3154.13 22678.9 -16007.6 -7.41766 
349 1 22.27 18.506 3 6.02417 -142128 -167795 13668.5 15559.3 -45522.3 -21010.2 -7.42024 
350 1 22.914 17.243 3 6.02163 -141367 -164059 -80551.9 6838.26 7214.83 -13440.3 -7.4155 
351 1 22.141 16.054 3 6.02121 -148906 -128725 70997.8 -4253.87 -34536.3 -20403.1 -7.42352 
352 1 22.785 14.79 3 6.0281 -148818 -130687 -119991 -21644.8 6344.15 -947.813 -7.41376 
353 1 22.013 13.601 3 6.02431 -166271 -157670 103055 -8050.79 -4682.21 -14020.3 -7.42574 
354 1 22.656 12.337 3 6.01968 -119399 -138427 -120054 -13610.4 -2379.77 5818.73 -7.41311 
355 1 21.884 11.148 3 6.02553 -160718 -180422 70974.5 -10277.8 34839.9 -19728.7 -7.42417 
554 2 12.487 19.101 6.4 6.02311 -137600 -106377 -119354 7679.55 -23629.8 -17451.6 -7.41326 
555 2 11.843 17.837 6.4 6.0272 -135240 -138085 -97482 18580.3 -43431.1 -6384.8 -7.41441 
556 2 12.615 16.648 6.4 6.02372 -121349 -164474 -102614 -3926.22 -18954 -7578.48 -7.41494 
557 2 11.972 15.385 6.4 6.01957 -134894 -164728 -46559.6 -25637 -32733.1 -1748.25 -7.41696 
558 2 12.744 14.195 6.4 6.01828 -150816 -129691 -99682.8 -22460.7 -6866.65 -10124.2 -7.41491 
559 2 12.101 12.932 6.4 6.02448 -151295 -197052 -19672.3 -11464 -46573.6 5683.46 -7.4196 
560 2 12.873 11.743 6.4 6.02611 -153034 -111752 -88524 20981.4 -20277 -10013.5 -7.41484 
561 2 12.229 10.479 6.4 6.02281 -143782 -130967 37652.8 4701.24 -48171.1 -1022.35 -7.42217 
587 2 13.903 19.175 6.4 6.02463 -145186 -144248 -112844 -4386.09 -18981.3 -28229.5 -7.41453 
588 2 14.675 17.986 6.4 6.02617 -158868 -136463 -69702.1 16461.3 -13818.2 -34354.6 -7.41614 
589 2 14.032 16.722 6.4 6.0189 -93125.1 -154435 -84368.3 1072.96 -29128.2 -5032.86 -7.41492 
590 2 14.804 15.533 6.4 6.02585 -156844 -153614 -67644.9 15126.8 -1753.23 -24707.6 -7.41632 
591 2 14.16 14.27 6.4 6.02288 -128837 -159133 -52385.8 -14048.6 -31168.2 15766.1 -7.41685 
592 2 14.933 13.081 6.4 6.02281 -143055 -99875.9 -68505.5 5610.69 -14238.2 -25234.5 -7.41556 
593 2 14.289 11.817 6.4 6.02611 -146655 -140534 -10798.2 15212.9 -53027.3 20314.9 -7.41934 
594 2 15.061 10.628 6.4 6.02448 -169267 -167992 -63583 -15835.2 -9065.06 -12890.2 -7.41692 