ITEM: TIMESTEP
67
ITEM: NUMBER OF ATOMS
728
ITEM: BOX BOUNDS pp pp pp
0.0000000000000000e+00 2.3428746799999999e+01
0.0000000000000000e+00 4.0579779799999997e+01
0.0000000000000000e+00 1.8399999999999999e+01
ITEM: ATOMS id type x y z c_csym c_2[1] c_2[2] c_2[3] c_2[4] c_2[5] c_2[6] c_3 
32 1 0.520254 9.80979 2.98963 6.00986 -142097 -146227 79586.3 -33463.9 44276.3 -2246.67 -7.42425 
33 1 1.16467 8.54651 2.97589 6.01641 -172853 -110507 -53283.5 -36603.1 4456.82 -11974.9 -7.41452 
34 1 0.39373 7.35687 2.96137 6.01218 -135888 -152520 36399.3 -30594.9 48214.2 -5681.97 -7.42031 
35 1 1.03712 6.09322 2.94506 6.01207 -168448 -116479 -22124.9 -27119.2 13339.5 -11608.3 -7.41557 
36 1 0.264662 4.90448 2.92885 6.01841 -133735 -152869 9088.95 -17731.3 36045.2 -5066.97 -7.41724 
37 1 0.906917 3.64032 2.91524 6.01682 -158820 -126201 -6752.37 -12610.4 14757.3 -9430.83 -7.41561 
38 1 0.133094 2.45228 2.90343 6.02601 -136091 -148701 -1773.02 -5146.93 18019.2 -2608 -7.41556 
39 1 0.774542 1.18771 2.89712 6.02723 -147405 -136853 -3442.04 -2830.59 6749.02 -6505.12 -7.41522 
40 1 -4.26329e-06 2.5156e-06 2.89387 6.03224 -141980 -141950 -3652.83 -3.51255 0.0123789 0.017456 -7.4151 
66 1 3.34992 9.66156 2.98885 6.01358 -197493 -86702.2 -43284.5 -37642.6 -8879.69 -28134.7 -7.41553 
67 1 2.58071 8.47086 2.97838 6.0039 -169738 -119323 38998.9 -32336.3 46169.3 9211.55 -7.42112 
68 1 3.22376 7.20665 2.9668 6.01177 -192980 -91799.9 -13968.9 -34008.6 4606.48 -32373.2 -7.41673 
69 1 2.45306 6.01688 2.94935 6.00813 -157492 -130290 8393.82 -17585.9 39855.5 -1839.09 -7.41803 
70 1 3.09528 4.75245 2.93841 6.01266 -178854 -106704 1000.8 -18929.8 12917.7 -30200.9 -7.41687 
71 1 2.32277 3.56367 2.9208 6.01564 -148235 -137685 -4241.6 -675.205 23333.4 -8356.36 -7.41607 
72 1 2.9643 2.29903 2.91531 6.02047 -160533 -124946 2058.13 -5015.7 11704.1 -24931.5 -7.41623 
73 1 2.19038 1.11096 2.90341 6.02186 -143134 -141539 -4730.54 9498.16 4567.67 -11969.9 -7.41536 
99 1 4.76585 9.5865 2.99055 6.00273 -197796 -90328.3 18995.8 -35392.1 34080.9 27376.7 -7.41999 
100 1 5.40876 8.3219 2.98628 6.00562 -205979 -80431.5 14616.9 -36575.1 -10318.8 -42493.6 -7.41933 
101 1 4.63962 7.13113 2.9736 6.00291 -182339 -105280 -9466.9 -18835.7 36171.7 8895.19 -7.41765 
102 1 5.28203 5.86652 2.96736 6.00922 -194661 -91943.9 26718.2 -21327 7109.38 -45824.9 -7.41962 
103 1 4.51106 4.67678 2.94916 6.00898 -164737 -121399 -20245.7 4778.95 23237 -5840.64 -7.41604 
104 1 5.15289 3.41212 2.94545 6.01394 -175331 -111984 20821.4 -2068.78 15541.4 -41043.6 -7.41861 
105 1 4.38005 2.22335 2.92865 6.01397 -151140 -134085 -14235.9 22592 4869.51 -15795.8 -7.41559 
106 1 5.02162 0.958787 2.93128 6.01423 -152456 -134446 4393.9 8959.97 12353 -32271.3 -7.41706 
132 1 7.59315 9.43833 2.99451 6.00148 -195846 -92063.4 50222.3 -35770.2 -29045.8 -33446 -7.42222 
133 1 6.82463 8.24712 2.9911 6.00813 -195710 -89851.9 -42239 -23615.8 24907.3 19627 -7.41588 
134 1 7.46763 6.98265 2.99119 6.00597 -194321 -92835.7 68115.6 -21540 -4757.79 -45329.8 -7.42332 
135 1 6.69782 5.79208 2.9781 6.00989 -177025 -107341 -52637.2 5882.92 18198.7 2343.77 -7.41483 
136 1 7.34033 4.52762 2.97709 6.01031 -182397 -105995 58001.1 3089.34 15991.9 -46708.8 -7.4223 
137 1 6.5686 3.33804 2.96072 6.01245 -159937 -124430 -39015.7 33637.7 1339.51 -11701.6 -7.41502 
138 1 7.21067 2.07363 2.96277 6.00767 -163245 -125599 28473.5 23071.2 23676.3 -40287.1 -7.41987 
139 1 6.43733 0.884854 2.94919 6.01165 -146847 -138235 -12012.4 47652.2 -16627.6 -22294.3 -7.41633 
165 1 9.00914 9.3637 2.99535 6.01721 -187291 -95066.5 -72325.7 -30441 10492.8 19366.6 -7.41391 
166 1 9.65313 8.09987 3.00186 6.0075 -171556 -115640 102059 -22586.8 -20303.6 -23374 -7.42613 
167 1 8.88355 6.90908 2.99729 6.01798 -174401 -106307 -91259.8 -1724.02 10114.7 8691.59 -7.41286 
168 1 9.5272 5.64518 2.99933 6.01145 -171671 -115746 102467 5439.17 10396.9 -31824.9 -7.42611 
169 1 8.75613 4.45504 2.98821 6.01907 -160931 -120888 -77327.6 34534.4 -3452.41 -2877.97 -7.41341 
170 1 9.39912 3.19104 2.98936 6.00511 -164166 -124761 68269.5 35070.7 31063.1 -32454.6 -7.42347 
171 1 8.6264 2.00166 2.97771 6.01531 -150719 -133363 -38127.6 60561.6 -21812.1 -13072.7 -7.4155 
172 1 9.26902 0.737687 2.98158 6.00201 -150008 -138668 16752.9 50682.5 34172.1 -27569.4 -7.41967 
199 1 11.0693 8.02621 3.00229 6.02547 -152988 -125361 -110219 -15953.6 3874.63 3299.28 -7.41177 
200 1 11.7144 6.7633 3.00646 6.01835 -143217 -143125 123247 45.4719 0.671443 0.428731 -7.42777 
201 1 10.9432 5.57316 3.00229 6.02546 -146041 -132292 -110219 19835.3 -4795.25 1706.3 -7.41177 
202 1 11.5875 4.30991 3.00186 6.00748 -149320 -137946 102058 35596.4 30395.2 -5895.4 -7.42612 
203 1 10.815 3.12029 2.99535 6.01723 -144480 -137959 -72325.3 55080.1 -22018.8 -595.608 -7.41391 
204 1 11.4583 1.85669 2.99451 6.00153 -149098 -138959 50220.8 62847 43488.6 -8430.35 -7.42222 
205 1 10.6848 0.667488 2.99026 6.00787 -144884 -141168 -14206.9 73397.6 -38345.8 -3830.48 -7.41753 
367 2 0.250876 8.62073 6.42291 6.01026 -127619 -160662 58001.2 34342.3 48448.1 9505.31 -7.4223 
368 2 0.378556 6.16859 6.45455 6.014 -125909 -161230 20820.7 26300.3 43314.5 7060.99 -7.41861 
369 2 0.508874 3.71667 6.48469 6.02047 -129351 -156011 2058.42 12892.5 27442.5 2329.29 -7.41623 
370 2 0.641313 1.26463 6.50288 6.02723 -136976 -147306 -3441.96 3205.38 9007.69 -2592.14 -7.41523 
371 2 -2.78568e-06 5.55623e-08 6.50613 6.03225 -141960 -142015 -3652.88 -7.49349 0.0833348 0.0773182 -7.4151 
396 2 2.31334 9.95849 6.40881 6.006 -99546.3 -187816 68114 32927.4 36878 26786.8 -7.42332 
397 2 1.66719 8.69653 6.4219 6.00989 -129965 -154483 -52635.5 33230.5 7070.39 -16932.3 -7.41483 
398 2 2.43954 7.50764 6.43264 6.00919 -99065.8 -187556 26717.2 33550.5 43240.3 16756 -7.41962 
399 2 1.79469 6.24509 6.45084 6.00905 -136513 -149679 -20245.1 21303.2 16676.9 -17204 -7.41604 
400 2 2.56811 5.05681 6.46159 6.01266 -108318 -177193 1000.34 21738.2 32612.8 3912.24 -7.41687 
401 2 1.92485 3.79342 6.4792 6.01563 -139610 -146083 -4241.14 4262.95 18902.6 -16030.6 -7.41607 
402 2 2.69916 2.60557 6.48476 6.01685 -123267 -161557 -6752.68 7830.74 15544.4 -8065.22 -7.41561 
403 2 2.05719 1.3414 6.49657 6.02599 -141004 -143746 -1772.48 -7998.93 11267.5 -14302.2 -7.41556 
404 2 2.83174 0.153647 6.49353 6.02137 -141307 -143645 -3605.62 693.083 -1011.86 -17737.1 -7.41556 
429 2 3.72991 10.0339 6.4089 6.00817 -96059.1 -189598 -42238.4 34073.5 -4543.19 -31384.2 -7.41588 
430 2 4.5026 8.84508 6.41372 6.00566 -80225.7 -206254 14616.2 35921.6 31641.8 30183 -7.41933 
431 2 3.85594 7.5836 6.4264 6.00297 -108341 -179316 -9466.41 24020.6 10383.4 -35773.3 -7.41765 
432 2 4.62927 6.39518 6.4332 6.01181 -87685.1 -197168 -13970.1 26755.2 30339.6 12197 -7.41674 
433 2 3.98425 5.13285 6.45065 6.00816 -121838 -165901 8394.78 2929.73 21521.2 -33596.2 -7.41803 
434 2 4.75833 3.94478 6.45494 6.01213 -105970 -178834 -22125.8 9013.07 16721.6 -5748.92 -7.41557 
435 2 4.11508 2.68144 6.47115 6.01846 -132527 -153989 9089.16 -17189.9 22409.2 -28683.3 -7.41723 
436 2 4.88955 1.49351 6.46886 6.0125 -128666 -157104 -13120.5 -5757.94 245.517 -20666.2 -7.41583 
437 2 4.24754 0.229363 6.47917 6.01609 -141292 -144019 -1297.69 -27197.8 12233.4 -22879.8 -7.41615 
463 2 5.91923 8.9206 6.40945 6.00274 -86729.4 -201626 18996.4 28792.1 -6667.85 -43203.1 -7.41999 
464 2 6.6922 7.7319 6.41115 6.01362 -81841.7 -202359 -43285.4 29158.1 19925.3 21757.4 -7.41553 
465 2 6.04563 6.47039 6.42162 6.00392 -103969 -185137 39000 5596.48 15108.2 -44589.8 -7.42112 
466 2 6.81917 5.28189 6.4241 6.0164 -94447.4 -188849 -53285.4 8842.9 12597.7 2127.04 -7.41452 
467 2 6.17439 4.01941 6.43863 6.01222 -121725 -166592 36400.3 -22673.6 29027.9 -38914.1 -7.42031 
468 2 6.94849 2.8311 6.43766 6.01037 -116210 -168741 -38435.5 -14177.4 -2671.73 -15764.7 -7.41523 
469 2 6.30537 1.56764 6.45052 6.01199 -135377 -151049 16322.9 -43141.6 28794 -31027.2 -7.41834 
470 2 7.07951 0.379271 6.44318 6.00552 -140415 -147016 -7484.4 -27375.9 -17341.6 -29774 -7.41722 
496 2 8.75575 9.06801 6.40396 6.01397 -100883 -182076 -72189.9 30689 6529.33 22431.3 -7.41403 
497 2 8.10874 7.80659 6.40328 6.00306 -97988.8 -190218 77427.2 13996.4 -4076.14 -40523.8 -7.42426 
498 2 8.88131 6.61746 6.40327 6.02264 -101349 -179219 -91260.9 10224.7 5860.81 8949.81 -7.41277 
499 2 8.23541 5.35545 6.41037 6.00984 -116079 -172316 79587.2 -18732.2 24084.3 -37219.6 -7.42424 
500 2 9.00869 4.16651 6.41111 6.01575 -113588 -168438 -77257.7 -19804.4 -6893.92 -6324.07 -7.41351 
501 2 8.36444 2.90361 6.42095 6.00837 -131578 -155921 52740.3 -49628.2 38771.5 -29983.7 -7.42188 
502 2 9.13829 1.71483 6.41837 6.00588 -132067 -154049 -36301.9 -44345.6 -23121 -18905.8 -7.41606 
503 2 8.49528 0.45121 6.42621 6.00829 -142198 -143776 9448.74 -66011.6 36167.7 -21884.8 -7.41856 
529 2 10.1723 9.14273 6.40096 6.00823 -112769 -174466 95952.6 25363.8 -28483.6 -22463.9 -7.42558 
530 2 10.9435 7.95293 6.39764 6.02344 -130278 -148188 -110231 17047.1 2632.54 5385.05 -7.41178 
531 2 10.2977 6.69063 6.39559 6.01302 -125076 -161890 115901 -3217.92 4514.68 -19351.3 -7.4272 
532 2 11.0696 5.5009 6.39764 6.02345 -128897 -149538 -110232 -16144.4 -5980.67 -412.516 -7.41178 
533 2 10.4248 4.23808 6.40096 6.00818 -136836 -150366 95954 -39462.5 33694.6 -13434.3 -7.42559 
534 2 11.1978 3.04871 6.40396 6.01396 -135190 -147811 -72189.3 -50322.5 -22691.4 -5560.41 -7.41403 
535 2 10.5542 1.78532 6.40807 6.00374 -143348 -143937 46680 -67063.8 44889.9 -8133.92 -7.4218 
536 2 11.3278 0.596194 6.40806 6.00569 -143397 -143497 -12942.1 -68791.2 -38262.1 -8323.1 -7.41779 
198 1 11.8397 9.21651 2.99933 6.01139 -134341 -153057 102467 -26831.8 -32759.6 6909.16 -7.42611 
231 1 13.256 9.14197 2.99729 6.01796 -121886 -158980 -91258.7 -28834.7 2469.98 -13104.4 -7.41286 
232 1 13.9025 7.88011 3.00186 6.00742 -110011 -177143 102059 -12791.6 -10090.1 29270.5 -7.42613 
233 1 13.1306 6.69051 3.00229 6.02543 -118572 -159729 -110218 -3982.02 919.961 -5006.23 -7.41177 
234 1 13.7763 5.4282 2.99933 6.01143 -125090 -162249 102465 21668.4 22364.4 24917.2 -7.42611 
235 1 13.0035 4.23884 2.99729 6.01798 -124847 -155894 -91257.8 30286.2 -12584.4 4414.23 -7.41286 
236 1 13.6478 2.97583 2.99119 6.00599 -137066 -150192 68112.1 54918.7 41636.8 18544.6 -7.42332 
237 1 12.8742 1.78674 2.9911 6.00815 -136744 -148841 -42237.6 57466.2 -29450.9 11758.4 -7.41588 
238 1 13.5174 0.523164 2.98628 6.00568 -143674 -142857 14615.9 72676.9 41960.9 12312 -7.41933 
264 1 16.0916 8.99486 2.99451 6.00149 -87025.5 -201019 50222 -27010.3 -14442 41877.1 -7.42222 
265 1 15.319 7.8059 2.99535 6.01725 -91852.8 -190554 -72326.1 -24876.1 11525.8 -18769.9 -7.41391 
266 1 15.9657 6.54436 2.98936 6.0051 -104301 -184548 68268.4 -429.902 12576.9 43130.3 -7.42347 
267 1 15.1925 5.35551 2.98821 6.01905 -100914 -180881 -77326 -75.4853 4218.6 -1550.2 -7.41341 
268 1 15.8375 4.0931 2.97709 6.01028 -122515 -165766 57997.9 31798.7 32456 37204.2 -7.4223 
269 1 15.0637 2.90444 2.9781 6.00986 -119633 -164758 -52634.6 27113.8 -11128.2 14588.5 -7.41484 
270 1 15.7072 1.64111 2.96736 6.00921 -136288 -150347 26715.2 55362.9 36131 29068.5 -7.41962 
271 1 14.9332 0.452454 2.9736 6.00296 -140931 -146683 -9467.66 42624.5 -25787.1 26879.8 -7.41765 
296 1 18.2812 10.1083 2.99194 6.00563 -83805.4 -203133 -12943.8 -34553.7 -11922.3 37296.9 -7.41779 
297 1 17.5083 8.91958 2.99026 6.00789 -78448.5 -207521 -14207.8 -35141.7 22490.6 -31292.7 -7.41753 
298 1 18.1554 7.65836 2.98158 6.002 -97554 -191040 16751.8 -20517.2 6790.54 43379.3 -7.41967 
299 1 17.3821 6.46985 2.97771 6.01534 -85236 -198812 -38128.9 -22832.6 22227.5 -12351.8 -7.41549 
300 1 18.0276 5.2078 2.96277 6.00763 -114991 -173667 28472.4 4902.05 23052.1 40648.2 -7.41988 
301 1 17.2536 4.01955 2.96072 6.01245 -104066 -180185 -39014.7 -1528.9 9463.89 7011.52 -7.41502 
302 1 17.8973 2.75646 2.94545 6.01398 -129711 -157568 20819.6 28662.6 27774.5 33980.3 -7.41861 
303 1 17.123 1.5683 2.94916 6.009 -128056 -158056 -20244.8 16232.6 -6559.82 23044.5 -7.41604 
304 1 17.7654 0.304357 2.93841 6.01265 -141130 -144289 999.544 40806.8 19694.7 26286.8 -7.41687 
329 1 19.6978 10.0328 2.99193 6.00369 -85758.8 -201559 46683.3 -33707.1 29489.8 -34808.1 -7.4218 
330 1 20.3447 8.77139 2.98163 6.00593 -109971 -176130 -36304.4 -31907.2 4812.78 29474.8 -7.41606 
331 1 19.5719 7.58272 2.97379 6.00828 -86232.6 -199688 9447.07 -33675.3 37036.5 -20378.5 -7.41856 
332 1 20.2175 6.32066 2.95682 6.00547 -121456 -165845 -7485.52 -16722.2 17112.3 29904.8 -7.41722 
333 1 19.4438 5.13246 2.94919 6.01163 -99076.6 -186079 -12013.3 -19999.7 27621.2 -3253.3 -7.41632 
334 1 20.0876 3.86945 2.93128 6.01433 -131150 -155767 4393.43 3493.78 21772.3 26830.8 -7.41706 
335 1 19.3132 2.68155 2.92865 6.01407 -118714 -166510 -14235.6 -3892.74 11244.1 12114.4 -7.41559 
336 1 19.9556 1.41764 2.91531 6.02048 -138085 -147290 2058.71 18085.4 15738.1 22600.6 -7.41623 
337 1 19.1811 0.229742 2.9208 6.01564 -140797 -144972 -4240.64 4933.92 -4431.24 24384.6 -7.41607 
356 1 22.5327 9.88499 2.98889 6.01581 -137514 -144622 -77257.8 -33823.1 2030.38 9130.38 -7.41351 
357 1 21.7611 8.69561 2.97905 6.00837 -106890 -180607 52739.8 -35175.2 45353 -18585.4 -7.42188 
358 1 22.4063 7.43311 2.96234 6.01031 -143213 -141761 -38435.1 -30016.8 12316.9 10194.6 -7.41523 
359 1 21.6337 6.24442 2.94948 6.01199 -109735 -176646 16322.5 -28150.5 41267.4 -9423.12 -7.41833 
360 1 22.2774 4.98122 2.93114 6.01247 -144833 -140892 -13120.3 -15194.3 18021.3 10117.9 -7.41583 
361 1 21.5036 3.79315 2.92083 6.01612 -119693 -165573 -1298.62 -14644.3 25930.9 844.489 -7.41615 
362 1 22.1459 2.52918 2.90647 6.02139 -143620 -141397 -3605.26 -635.305 14854.9 9743.97 -7.41556 
363 1 21.3714 1.34144 2.90341 6.02183 -133613 -150984 -4729.81 -4027.27 8081.57 9940.3 -7.41536 
364 1 22.0129 0.0769218 2.89712 6.02721 -141953 -142299 -3441.38 6052.16 2258.87 9098.13 -7.41522 
562 2 13.0046 9.28973 6.40327 6.02264 -168488 -112137 -91259.5 28562.4 4820.02 -9551.33 -7.41277 
563 2 12.3598 8.02655 6.39559 6.01303 -149909 -137164 115901 17409 -19016.4 5765.65 -7.4272 
564 2 13.1301 6.83607 6.39764 6.02346 -158417 -120047 -110230 -706.51 3347.46 -4972.88 -7.41179 
565 2 12.4857 5.57272 6.39559 6.01304 -155356 -131522 115900 -14333 14502.1 13587 -7.4272 
566 2 13.2572 4.38271 6.40327 6.02264 -150888 -129603 -91258.8 -38645.7 -10681.6 601.124 -7.41277 
567 2 12.6137 3.11908 6.40328 6.00305 -154924 -133236 77425.5 -46924.3 37132.9 16733.6 -7.42426 
568 2 13.3866 1.92967 6.41115 6.01363 -147053 -137178 -43283.5 -66632.1 -28805.8 6378.77 -7.41553 
569 2 12.7437 0.665905 6.40945 6.00274 -147906 -140290 18995.6 -64079.8 40749 15828.1 -7.41999 
595 2 14.4207 9.36422 6.40328 6.00305 -179272 -108974 77427 32677.3 -33057.4 23791 -7.42426 
596 2 15.1896 8.17319 6.40396 6.01396 -188211 -94706.3 -72189.9 19759.5 16162 -16870.3 -7.41403 
597 2 14.5461 6.90909 6.40096 6.00821 -181089 -106193 95953.3 13781.2 -5211.62 35898.7 -7.42558 
598 2 15.3161 5.71851 6.41111 6.01579 -171988 -110090 -77256.2 -13611.6 8923.79 -2806.81 -7.41351 
599 2 14.6731 4.45436 6.41037 6.00992 -174363 -114061 79583.3 -15035.9 20191.3 39469.3 -7.42424 
600 2 15.4449 3.26464 6.42411 6.0165 -157795 -125601 -53282.7 -45049.1 -8142.97 9848.28 -7.41452 
601 2 14.8024 2.00048 6.42162 6.00399 -160020 -129069 38996.6 -37901.5 31060.9 35380.3 -7.42112 
602 2 15.5757 0.811476 6.4332 6.01183 -146669 -138203 -13969.9 -60773.7 -25733.2 20177.6 -7.41673 
628 2 17.2485 9.5121 6.40806 6.00567 -203133 -83828.4 -12941.5 34376.6 26339.8 -28974 -7.41779 
629 2 16.6055 8.24752 6.40807 6.00367 -201777 -85593.4 46681.3 33168.4 -15399.4 42943.9 -7.4218 
630 2 17.3745 7.05658 6.41837 6.00594 -187092 -99143.6 -36302.7 12881.8 27933.4 -10568.6 -7.41606 
631 2 16.7319 5.79201 6.42095 6.00837 -192674 -94769.4 52737.3 14036.9 6582.38 48568.9 -7.42188 
632 2 17.5027 4.60202 6.43766 6.0104 -167951 -116863 -38435 -15471.8 14988.6 5568.69 -7.41523 
633 2 16.8606 3.33747 6.43863 6.01225 -175042 -113348 36397.3 -8244.29 19185.2 44595.3 -7.42031 
634 2 17.6333 2.14844 6.45494 6.01207 -152878 -131900 -22124.8 -35959 -3382.77 17355.8 -7.41557 
635 2 16.9914 0.884035 6.45065 6.00815 -152409 -135388 8394.01 -20547.8 18333.6 35436.1 -7.41803 
661 2 18.6644 9.58707 6.40974 6.00784 -205664 -80324.4 -14208.6 38232.2 -15854.8 35123.3 -7.41753 
662 2 19.4331 8.39605 6.41842 6.00202 -185533 -103174 16753 30217.1 40963.1 -15809.4 -7.41967 
663 2 18.7904 7.13153 6.42621 6.00829 -200519 -85394 9446.43 32178.9 870.638 42263.8 -7.41856 
664 2 19.5605 5.9414 6.44318 6.00551 -169242 -118117 -7484.45 10976 34454.2 -132.393 -7.41722 
665 2 18.9185 4.67679 6.45052 6.01201 -184365 -101899 16321.6 14685 12473.7 40448.7 -7.41834 
666 2 19.6906 3.48771 6.46886 6.01244 -154984 -130645 -13120.1 -9274.27 17773.8 10546.3 -7.41583 
667 2 19.049 2.22304 6.47116 6.01841 -163440 -123026 9089.06 -723.172 13635.4 33748.7 -7.41723 
668 2 19.8227 1.03475 6.48476 6.01681 -145176 -139696 -6751.74 -20462.5 -787.504 17494.8 -7.41561 
694 2 21.4927 9.73541 6.41064 6.00502 -165001 -123973 68272.8 34429.2 43639.3 -10672.6 -7.42347 
695 2 20.849 8.47151 6.42229 6.01535 -190318 -93880.1 -38129.4 37764.1 416.654 25424.6 -7.4155 
696 2 21.6192 7.28145 6.43723 6.00767 -154902 -133812 28473.6 27761.7 46728.2 -360.833 -7.41988 
697 2 20.9764 6.01732 6.45081 6.01168 -181685 -103284 -12013.9 27590.2 10993.6 25544.1 -7.41632 
698 2 21.7483 4.82824 6.46872 6.01422 -146595 -140031 4394.5 12314.5 34123.5 5435.99 -7.41706 
699 2 21.1064 3.56379 6.47917 6.01609 -166811 -118282 -1297.58 12459.1 13696.9 22033.2 -7.41615 
700 2 21.8798 2.37553 6.49353 6.02133 -142394 -142429 -3605.36 -1302.07 15866.3 7992.18 -7.41556 
701 2 21.2385 1.11087 6.49657 6.02595 -149951 -134797 -1771.86 2883.14 6751.87 16909.6 -7.41556 
725 2 22.9089 9.81055 6.41179 6.01903 -160928 -120936 -77327.3 34627.4 767.455 4427.46 -7.41341 
726 2 23.0353 7.35759 6.43928 6.01259 -162509 -121788 -39015.6 32313.7 10804.7 4688.79 -7.41502 
727 2 23.1642 4.90491 6.47135 6.01398 -157858 -127169 -14235.6 18871.6 16112.5 3678.7 -7.41559 
728 2 23.2957 2.4524 6.49659 6.02187 -150093 -134525 -4730.62 5526.06 12649.3 2029.08 -7.41535 
24 1 1.0293 19.624 2.99055 6.00271 -147854 -140289 18997.5 64151.2 -40749.1 15827.5 -7.41999 
25 1 1.67225 18.3602 2.98885 6.01359 -146905 -137250 -43286.9 66645.7 28804 6378.01 -7.41553 
26 1 0.899293 17.1708 2.99672 6.00299 -154904 -133362 77429.8 46965.9 -37131.7 16733.2 -7.42426 
27 1 1.54283 15.9072 2.99673 6.02261 -150892 -129725 -91260.8 38699.2 10680.4 601.151 -7.41277 
28 1 0.771293 14.7172 3.00441 6.01299 -155403 -131531 115901 14324.6 -14501.1 13586.5 -7.4272 
29 1 1.41568 13.4538 3.00236 6.02342 -158474 -119991 -110231 693.225 -3347.16 -4973.02 -7.41178 
30 1 0.645434 12.2633 3.00441 6.01297 -149967 -137026 115901 -17435.5 19016 5766.86 -7.4272 
31 1 1.29024 11.0002 2.99673 6.02261 -168552 -111964 -91259.9 -28573.8 -4819.84 -9550.92 -7.41277 
58 1 3.86135 19.4784 2.9668 6.01181 -146693 -138373 -13972 60884.7 25732.7 20176.2 -7.41674 
59 1 3.08804 18.2894 2.97838 6.00396 -159857 -129198 38999.5 37970.1 -31062.1 35380.3 -7.42112 
60 1 3.73054 17.0253 2.97589 6.01649 -157638 -125735 -53284.2 45132.3 8139.78 9847.79 -7.41452 
61 1 2.95872 15.8355 2.98963 6.00983 -174338 -114131 79586.6 15099.3 -20190.7 39468.9 -7.42425 
62 1 3.60173 14.5714 2.98889 6.01575 -171982 -110118 -77256 13632.4 -8923.91 -2807.68 -7.41351 
63 1 2.83171 13.3808 2.99904 6.00819 -181132 -106075 95952.9 -13845.9 5212.1 35898.8 -7.42558 
64 1 3.47525 12.1167 2.99604 6.01392 -188336 -94584.8 -72190.3 -19841.7 -16161.2 -16870.5 -7.41403 
65 1 2.70634 10.9257 2.99672 6.00299 -179352 -108781 77427.9 -32763.3 33056.6 23792.3 -7.42426 
91 1 5.27707 19.4059 2.94935 6.00809 -152389 -135429 8394.94 20597.9 -18334.3 35435.7 -7.41803 
92 1 5.91893 18.1414 2.94506 6.01204 -152871 -131981 -22125.1 35963.7 3381.82 17356.1 -7.41557 
93 1 5.14627 16.9524 2.96137 6.01225 -174920 -113454 36399.4 8289.53 -19186.6 44595.8 -7.42031 
94 1 5.78833 15.6879 2.96234 6.01038 -168054 -116986 -38434.4 15482.9 -14988.2 5568.62 -7.41522 
95 1 5.01756 14.4979 2.97905 6.00836 -192654 -94733.9 52739.5 -14142.2 -6580.69 48569.5 -7.42188 
96 1 5.66015 13.2333 2.98163 6.0059 -187078 -98966.5 -36302.4 -12925 -27932.6 -10569.8 -7.41606 
97 1 4.89117 12.0424 2.99193 6.00368 -201868 -85406 46680.6 -33210.9 15399.5 42943 -7.4218 
98 1 5.53414 10.7778 2.99194 6.00564 -203048 -83688.8 -12942.1 -34429.2 -26340 -28973.6 -7.41779 
124 1 8.10831 19.2551 2.91524 6.01682 -145125 -139724 -6752.48 20451 786.675 17494.8 -7.41561 
125 1 7.33464 18.0668 2.92884 6.01842 -163465 -123139 9089.31 765.881 -13635.3 33748.9 -7.41723 
126 1 7.97618 16.8022 2.93114 6.01242 -155021 -130761 -13119.7 9313.44 -17774.5 10546.3 -7.41583 
127 1 7.20408 15.6131 2.94948 6.01197 -184441 -101980 16323 -14654.8 -12472.9 40449.4 -7.41834 
128 1 7.84616 14.3485 2.95682 6.0055 -169154 -118233 -7483.85 -10980.8 -34454.6 -131.808 -7.41722 
129 1 7.07598 13.1584 2.97379 6.00828 -200536 -85417.3 9447.59 -32241.5 -869.162 42264.3 -7.41856 
130 1 7.71873 11.8938 2.98158 6.00199 -185429 -103169 16751.2 -30271.7 -40962.6 -15809.1 -7.41967 
131 1 6.95003 10.7028 2.99026 6.00784 -205589 -80289.8 -14207.2 -38296.9 15854.6 35123.8 -7.41753 
157 1 9.5241 19.179 2.90343 6.02601 -149893 -134791 -1773.03 -2779.07 -6752.3 16908.1 -7.41556 
158 1 10.1654 17.9143 2.90647 6.02139 -142353 -142533 -3605.8 1356.78 -15867 7992.56 -7.41556 
159 1 9.39197 16.7261 2.92083 6.01604 -166818 -118411 -1298.04 -12434.5 -13697.3 22033.9 -7.41615 
160 1 10.0339 15.4616 2.93128 6.0143 -146581 -140278 4393.85 -12335.7 -34123.2 5439.03 -7.41706 
161 1 9.26202 14.2726 2.94919 6.01162 -181593 -103533 -12012.8 -27628.5 -10993.4 25547.9 -7.41633 
162 1 9.90486 13.0084 2.96277 6.00768 -154896 -133931 28471.8 -27756.9 -46728.2 -359.676 -7.41988 
163 1 9.13467 11.8184 2.97771 6.01534 -190197 -93876.3 -38127.1 -37819.1 -416.49 25425.9 -7.41549 
164 1 9.77834 10.5545 2.98936 6.00505 -164920 -123947 68268.7 -34468.4 -43639.3 -10673.8 -7.42347 
191 1 11.5813 17.8375 2.90341 6.02185 -149994 -134492 -4730.37 -5454.04 -12650.3 2028.12 -7.41536 
193 1 11.4498 15.385 2.92865 6.01397 -157861 -127391 -14235.4 -18785.1 -16114 3681.64 -7.41559 
195 1 11.3209 12.9323 2.96072 6.01248 -162513 -121933 -39015.3 -32369.4 -10803.4 4691.59 -7.41502 
197 1 11.1945 10.4793 2.98821 6.01905 -160877 -120949 -77326.5 -34739.1 -766.624 4429.05 -7.41341 
365 2 2.00713e-06 13.5266 6.39354 6.01837 -143326 -143340 123247 15.0562 -0.0155971 0.556501 -7.42777 
366 2 0.125276 11.0734 6.40067 6.01144 -134407 -153147 102467 26785.7 32759.6 6910.44 -7.42611 
388 2 1.80302 19.7667 6.41372 6.00564 -143569 -142956 14618.2 -72681 -41960.1 12311.6 -7.41933 
389 2 1.15985 18.5032 6.4089 6.00816 -136727 -148969 -42240.4 -57408 29450.5 11757.8 -7.41588 
390 2 1.93341 17.3141 6.40881 6.00597 -137083 -150297 68115.3 -54873.7 -41635.9 18545.1 -7.42332 
391 2 1.28917 16.0511 6.40271 6.01801 -124851 -156012 -91259.7 -30216.5 12583.4 4413.61 -7.41286 
392 2 2.06191 14.8617 6.40067 6.01144 -125141 -162302 102466 -21546.6 -22363.1 24916.9 -7.42611 
393 2 1.41627 13.5994 6.39771 6.02547 -118640 -159800 -110218 4101.79 -920.328 -5005.51 -7.41177 
394 2 2.18813 12.4098 6.39814 6.0075 -110104 -177188 102059 12867.5 10089.8 29270.6 -7.42612 
395 2 1.54166 11.1479 6.40271 6.01797 -121917 -158809 -91259 28748.2 -2470.06 -13105.5 -7.41286 
421 2 3.21882 19.8374 6.4264 6.00295 -140864 -146867 -9468.82 -42708.2 25787.5 26878.3 -7.41765 
422 2 3.99281 18.6488 6.43264 6.00924 -136242 -150337 26716.7 -55332.1 -36130.9 29069.7 -7.41962 
423 2 3.34937 17.3855 6.4219 6.0099 -119627 -164806 -52636.3 -27018.4 11127.7 14588.8 -7.41483 
424 2 4.12318 16.1968 6.42291 6.01032 -122518 -165770 57999.3 -31690.9 -32455.1 37205.1 -7.4223 
425 2 3.47814 14.9344 6.41179 6.01909 -100923 -180772 -77326.1 131.123 -4219.1 -1549.49 -7.41341 
426 2 4.25129 13.7455 6.41064 6.00507 -104209 -184518 68269.8 431.497 -12575 43129.6 -7.42347 
427 2 3.60463 12.484 6.40465 6.01721 -91895.7 -190478 -72326.3 24838.1 -11525.6 -18770 -7.41391 
428 2 4.37725 11.295 6.40549 6.0015 -87141.5 -200925 50222.9 26961.7 14441.8 41877.6 -7.42222 
454 2 6.05099 19.9855 6.46159 6.01265 -141143 -144390 999.284 -40792.5 -19694.8 26287.6 -7.41687 
455 2 5.40864 18.7216 6.45084 6.00898 -128034 -158073 -20245.7 -16265.5 6559.32 23043.8 -7.41604 
456 2 6.18295 17.5334 6.45455 6.01396 -129663 -157550 20820.6 -28663.5 -27773.7 33980.8 -7.41861 
457 2 5.53925 16.2703 6.43928 6.01247 -104053 -180202 -39014.7 1544.5 -9464.14 7010.74 -7.41502 
458 2 6.31322 15.0821 6.43724 6.00766 -114955 -173643 28473.3 -4877.93 -23050.7 40648.4 -7.41987 
459 2 5.66769 13.82 6.42229 6.01534 -85156.7 -198842 -38127.1 22894.2 -22226.3 -12352.2 -7.4155 
460 2 6.44101 12.6315 6.41842 6.00201 -97572.9 -191090 16752.9 20559.2 -6789.75 43379 -7.41967 
461 2 5.79389 11.3703 6.40974 6.00784 -78526.6 -207419 -14207.8 35096.1 -22491.1 -31292 -7.41753 
462 2 6.56677 10.1816 6.40806 6.00569 -83873.1 -203054 -12942 34430.7 11921.9 37297.9 -7.41779 
487 2 7.46676 20.0602 6.4792 6.01569 -140815 -144967 -4241.8 -4941.97 4430.65 24384.5 -7.41607 
488 2 8.24121 18.8723 6.48469 6.02055 -138130 -147120 2057.25 -18009.9 -15737.7 22601.6 -7.41623 
489 2 7.59887 17.6083 6.47135 6.01399 -118680 -166340 -14235.2 3971.88 -11244.3 12115.4 -7.41559 
490 2 8.37323 16.4204 6.46872 6.01429 -131219 -155537 4393.62 -3388.07 -21771.4 26834.3 -7.41706 
491 2 7.72941 15.1574 6.45081 6.0116 -99015 -185831 -12011.3 20082.3 -27620.5 -3251.17 -7.41632 
492 2 8.50308 13.9692 6.44318 6.00547 -121563 -165767 -7483.84 16710.7 -17112.9 29906.3 -7.41722 
493 2 7.85749 12.7072 6.42621 6.00826 -86246.6 -199654 9447.27 33656.9 -37036.5 -20378.5 -7.41856 
494 2 8.63031 11.5185 6.41837 6.00592 -109990 -176178 -36301.4 31861.5 -4812.94 29475.4 -7.41606 
495 2 7.98341 10.2571 6.40807 6.00372 -85790.1 -201609 46679 33611.6 -29490.8 -34808.3 -7.4218 
520 2 10.2985 20.213 6.50288 6.02729 -141890 -142189 -3442.04 -6049.66 -2258.44 9097.26 -7.41522 
521 2 9.65707 18.9485 6.49659 6.02192 -133635 -150814 -4730.28 4036.88 -8082.39 9940.43 -7.41535 
522 2 10.4316 17.7607 6.49353 6.02143 -143644 -141208 -3606.07 631.796 -14854.9 9744.35 -7.41557 
523 2 9.78924 16.4967 6.47917 6.01608 -119810 -165450 -1296.84 14702.2 -25931.8 845.634 -7.41615 
524 2 10.563 15.3087 6.46886 6.01244 -144907 -140770 -13120.4 15283.3 -18020.1 10119.9 -7.41583 
525 2 9.9193 14.0455 6.45052 6.012 -109848 -176554 16323.1 28250.2 -41266.4 -9421.69 -7.41834 
526 2 10.6919 12.8568 6.43766 6.01039 -143226 -141697 -38435.3 30085.7 -12316.3 10196.7 -7.41523 
527 2 10.0468 11.5943 6.42095 6.00835 -106902 -180483 52738 35194 -45352.6 -18584.6 -7.42188 
528 2 10.8183 10.4049 6.41111 6.01579 -137536 -144685 -77256.6 33763.1 -2031.04 9131.57 -7.41351 
190 1 12.3557 19.0253 2.89712 6.02721 -136976 -147217 -3442.11 -3120.77 -9008.23 -2592.69 -7.41522 
192 1 12.2233 16.5732 2.91531 6.0205 -129372 -156068 2057.24 -12905.9 -27442.1 2329.83 -7.41623 
194 1 12.0929 14.1213 2.94545 6.01398 -125892 -161480 20819.4 -26267.4 -43314.8 7063.8 -7.41861 
196 1 11.9652 11.6692 2.97709 6.01028 -127646 -160809 57998.4 -34421.4 -48447.7 9506.15 -7.4223 
222 1 14.5461 20.1362 2.90647 6.02141 -141433 -143459 -3605.4 -678.35 1010.2 -17737.4 -7.41556 
223 1 13.7716 18.9485 2.90343 6.026 -141032 -143639 -1772.5 8075.89 -11267.8 -14301.9 -7.41556 
224 1 14.4135 17.6843 2.91524 6.01682 -123420 -161545 -6752.84 -7839.87 -15545.4 -8065.25 -7.41561 
225 1 13.6392 16.4965 2.9208 6.01565 -139674 -146129 -4241.13 -4284.82 -18903 -16030.3 -7.41607 
226 1 14.2825 15.2331 2.93841 6.01261 -108304 -177306 998.755 -21776.9 -32611.6 3912.94 -7.41687 
227 1 13.5091 14.0448 2.94916 6.00896 -136447 -149802 -20245.2 -21361.1 -16676.1 -17202.9 -7.41604 
228 1 14.1539 12.7822 2.96736 6.00917 -98976.1 -187638 26715.2 -33606.4 -43240 16756.3 -7.41962 
229 1 13.3816 11.5934 2.9781 6.00983 -129969 -154546 -52636.1 -33302.7 -7069.77 -16931.2 -7.41483 
230 1 14.0277 10.3314 2.99119 6.00597 -99481.8 -187965 68113.4 -33044.5 -36877.8 26787.5 -7.42332 
255 1 15.9619 20.0605 2.92083 6.01604 -141428 -143720 -1297.54 27234.3 -12234.7 -22879.5 -7.41615 
256 1 16.6039 18.7964 2.93114 6.01241 -128758 -156895 -13119.9 5800.61 -247.09 -20666.2 -7.41583 
257 1 15.8295 17.6084 2.92885 6.01836 -132642 -153937 9089.52 17256.5 -22410.5 -28682.5 -7.41724 
258 1 16.4727 16.3451 2.94506 6.01204 -106053 -178893 -22125.8 -9008.48 -16722.2 -5748.76 -7.41557 
259 1 15.6986 15.157 2.94935 6.00813 -121840 -166056 8394.72 -2907.97 -21521.5 -33595.1 -7.41803 
260 1 16.3436 13.8947 2.96681 6.0118 -87654.8 -197319 -13972.1 -26718.9 -30339.6 12198.5 -7.41673 
261 1 15.5703 12.7063 2.9736 6.00293 -108263 -179459 -9466.82 -24008.6 -10383.8 -35772.4 -7.41765 
262 1 16.217 11.4448 2.98628 6.00563 -80156.2 -206420 14615.3 -35943.5 -31642 30183.8 -7.41933 
263 1 15.4443 10.256 2.9911 6.00811 -95967.5 -189682 -42238.3 -34152 4543.25 -31383.4 -7.41588 
288 1 18.7939 19.9106 2.95682 6.00553 -140302 -146961 -7485.36 27452.4 17342.7 -29773 -7.41722 
289 1 18.0197 18.7223 2.94948 6.01205 -135464 -150975 16321.1 43272.5 -28795.1 -31025.9 -7.41834 
290 1 18.6629 17.4588 2.96234 6.0104 -116231 -168697 -38435.5 14251.7 2670.52 -15763.9 -7.41522 
291 1 17.8888 16.2705 2.96137 6.01219 -121785 -166499 36399.3 22693.3 -29028.5 -38914.3 -7.42031 
292 1 18.5335 15.008 2.9759 6.01646 -94592.5 -188779 -53285.1 -8847.96 -12599 2125.97 -7.41452 
293 1 17.76 13.8195 2.97838 6.00395 -103949 -185176 39000.1 -5567.27 -15108.6 -44589.8 -7.42112 
294 1 18.4066 12.558 2.98885 6.01359 -81863.6 -202406 -43287 -29146.4 -19925.4 21757.5 -7.41553 
295 1 17.6336 11.3693 2.99055 6.00269 -86587.9 -201633 18997.7 -28846.1 6668.13 -43203.2 -7.41999 
321 1 20.2096 19.8387 2.97379 6.00829 -142082 -143727 9446.29 66039 -36166.3 -21885.9 -7.41856 
322 1 20.8527 18.5751 2.98163 6.0059 -132114 -153935 -36303.6 44404.6 23119.9 -18905.7 -7.41606 
323 1 20.0788 17.3863 2.97905 6.00839 -131565 -155828 52739.1 49698.8 -38771.9 -29984.1 -7.42188 