(written by TR)

56	atoms
2	atom types
0	6.49796522	xlo xhi
0	11.2548059	ylo yhi
0	18.4	zlo zhi


Masses

1	12
2	12

Atoms

1 1 1 0 0.46414037 9.91494806 7.50000000 0 0 0
2 1 1 0 0.00000000 7.50320394 7.50000000 0 0 0
3 1 1 0 2.78484224 10.71886277 7.50000000 0 0 0
4 1 1 0 1.85656149 9.64697649 7.50000000 0 0 0
5 1 1 0 2.32070186 8.30711865 7.50000000 0 0 0
6 1 1 0 1.39242112 7.23523237 7.50000000 0 0 0
7 1 1 0 1.85656149 5.89537452 7.50000000 0 0 0
8 1 1 0 0.92828075 4.82348825 7.50000000 0 0 0
9 1 1 0 1.39242112 3.48363040 7.50000000 0 0 0
10 1 1 0 0.46414037 2.41174412 7.50000000 0 0 0
11 1 1 0 0.92828075 1.07188628 7.50000000 0 0 0
12 1 1 0 0.00000000 0.00000000 7.50000000 0 0 0
13 1 1 0 4.17726336 10.45089120 7.50000000 0 0 0
14 1 1 0 4.64140373 9.11103335 7.50000000 0 0 0
15 1 1 0 3.71312298 8.03914708 7.50000000 0 0 0
16 1 1 0 4.17726336 6.69928923 7.50000000 0 0 0
17 1 1 0 3.24898261 5.62740295 7.50000000 0 0 0
18 1 1 0 3.71312298 4.28754511 7.50000000 0 0 0
19 1 1 0 2.78484224 3.21565883 7.50000000 0 0 0
20 1 1 0 3.24898261 1.87580098 7.50000000 0 0 0
21 1 1 0 2.32070186 0.80391471 7.50000000 0 0 0
22 1 1 0 6.03382485 8.84306178 7.50000000 0 0 0
23 1 1 0 5.56968447 6.43131766 7.50000000 0 0 0
24 1 1 0 6.03382485 5.09145981 7.50000000 0 0 0
25 1 1 0 5.10554410 4.01957354 7.50000000 0 0 0
26 1 1 0 5.56968447 2.67971569 7.50000000 0 0 0
27 1 1 0 4.64140373 1.60782942 7.50000000 0 0 0
28 1 1 0 5.10554410 0.26797157 7.50000000 0 0 0
29 2 2 0 -0.00000000 3.75160197 10.90000000 0 0 0
30 2 2 0 0.46414037 1.33985785 10.90000000 0 0 0
31 2 2 0 0.00000000 0.00000000 10.90000000 0 0 0
32 2 2 0 0.92828075 10.18291963 10.90000000 0 0 0
33 2 2 0 0.46414037 8.84306178 10.90000000 0 0 0
34 2 2 0 1.39242112 7.77117551 10.90000000 0 0 0
35 2 2 0 0.92828075 6.43131766 10.90000000 0 0 0
36 2 2 0 1.85656149 5.35943138 10.90000000 0 0 0
37 2 2 0 1.39242112 4.01957354 10.90000000 0 0 0
38 2 2 0 2.32070186 2.94768726 10.90000000 0 0 0
39 2 2 0 1.85656149 1.60782942 10.90000000 0 0 0
40 2 2 0 2.78484224 0.53594314 10.90000000 0 0 0
41 2 2 0 2.32070186 10.45089120 10.90000000 0 0 0
42 2 2 0 3.24898261 9.37900492 10.90000000 0 0 0
43 2 2 0 2.78484224 8.03914708 10.90000000 0 0 0
44 2 2 0 3.71312298 6.96726080 10.90000000 0 0 0
45 2 2 0 3.24898261 5.62740295 10.90000000 0 0 0
46 2 2 0 4.17726336 4.55551668 10.90000000 0 0 0
47 2 2 0 3.71312298 3.21565883 10.90000000 0 0 0
48 2 2 0 4.64140373 2.14377255 10.90000000 0 0 0
49 2 2 0 4.17726336 0.80391471 10.90000000 0 0 0
50 2 2 0 5.10554410 10.98683434 10.90000000 0 0 0
51 2 2 0 4.64140373 9.64697649 10.90000000 0 0 0
52 2 2 0 5.56968447 8.57509021 10.90000000 0 0 0
53 2 2 0 5.10554410 7.23523237 10.90000000 0 0 0
54 2 2 0 6.03382485 6.16334609 10.90000000 0 0 0
55 2 2 0 5.56968447 4.82348825 10.90000000 0 0 0
56 2 2 0 6.03382485 2.41174412 10.90000000 0 0 0
