ITEM: TIMESTEP
66
ITEM: NUMBER OF ATOMS
728
ITEM: BOX BOUNDS pp pp pp
0.0000000000000000e+00 2.3428746799999999e+01
0.0000000000000000e+00 4.0579779799999997e+01
0.0000000000000000e+00 1.8399999999999999e+01
ITEM: ATOMS id type x y z c_csym c_2[1] c_2[2] c_2[3] c_2[4] c_2[5] c_2[6] c_3 
32 1 0.520135 9.81003 2.97333 6.01113 -145452 -151983 57016.7 -24164 41881.4 -4017.13 -7.42273 
33 1 1.16417 8.54666 2.96051 6.01116 -164410 -115983 -38770.4 -18266.7 13874.4 -9541.17 -7.41548 
34 1 0.392468 7.35732 2.9482 6.0154 -136310 -154986 25121.5 -10528.1 35519.3 1075.48 -7.4195 
35 1 1.03538 6.09349 2.93632 6.02205 -158753 -124892 -22877.2 -10762.3 3977.32 -9060.24 -7.4157 
36 1 0.262728 4.9047 2.92583 6.02173 -132140 -151576 21699.3 -9737.85 21243.9 -3865.75 -7.41783 
37 1 0.905401 3.64071 2.91654 6.02259 -162425 -130784 -6122.95 -12655.7 8626.04 -5640.47 -7.41601 
38 1 0.132242 2.45226 2.90808 6.02246 -138558 -151107 2480.34 -7605.79 25238.9 -4449.09 -7.41622 
39 1 0.774184 1.18792 2.90293 6.02278 -152847 -138208 -7846.68 -3686.62 12824 -9718.39 -7.41562 
40 1 5.92224e-07 -4.52587e-07 2.9001 6.0308 -145174 -145207 -12481.1 6.5487 0.100989 -0.380262 -7.41536 
66 1 3.34997 9.66216 2.97195 6.01369 -195475 -89460 -28337 -29868.2 2369.81 -15621.2 -7.41628 
67 1 2.5802 8.47166 2.96198 6.00448 -166951 -121493 24257.7 -22009.2 45119.4 18231.4 -7.41979 
68 1 3.22289 7.20738 2.95169 6.01345 -177851 -99367 -14891.8 -21610.6 8720.9 -22171 -7.41661 
69 1 2.45132 6.01796 2.93905 6.01784 -152027 -130630 7278.02 -9591.2 21989.2 10011.9 -7.4177 
70 1 3.09364 4.7536 2.93155 6.02191 -167963 -115554 3264.14 -17467.3 -1086.16 -19014.8 -7.417 
71 1 2.32126 3.56467 2.9203 6.02184 -151527 -137129 201.001 -2843.15 16702.5 -3069.37 -7.41654 
72 1 2.96331 2.30025 2.91674 6.02184 -161207 -125669 14203.2 -6333.01 6061.08 -22222 -7.41703 
73 1 2.19001 1.11174 2.90798 6.01911 -149396 -143951 -6562.79 11382.1 10158.4 -14855.4 -7.4158 
99 1 4.76582 9.58674 2.97241 6.00174 -199803 -86096.7 14337.2 -32951.4 38539.4 24534.1 -7.4191 
100 1 5.40856 8.32214 2.96799 6.00746 -200189 -82139.8 8347.76 -32416.2 -1527.91 -38480.9 -7.4186 
101 1 4.63875 7.13165 2.95656 6.00749 -175826 -108231 -12884.5 -16976 31448.7 4358.29 -7.41715 
102 1 5.28126 5.86723 2.95164 6.01487 -177160 -108761 12097.6 -22855.1 5900.67 -39632.1 -7.41876 
103 1 4.5095 4.67795 2.93851 6.02137 -153972 -129430 -21911.5 -3571.16 6836.65 -2829.17 -7.41601 
104 1 5.15205 3.41374 2.9366 6.01932 -159397 -126346 22743.5 -10770.1 7981.44 -24654.6 -7.41856 
105 1 4.37913 2.22503 2.92541 6.02541 -149896 -140860 -16659.4 14067.6 -418.958 -5034.87 -7.41576 
106 1 5.02139 0.960859 2.9273 6.02129 -146867 -136931 12710.3 6861.41 11240.8 -15034.6 -7.41744 
132 1 7.59305 9.43787 2.97703 5.99962 -193844 -90938.4 40693.8 -33801.8 -29364.4 -37097 -7.421 
133 1 6.82435 8.24667 2.97335 6.00725 -197370 -94367.4 -28624.3 -21805.6 25467.6 199.46 -7.41649 
134 1 7.46746 6.98238 2.97373 6.00812 -186471 -104597 48500.6 -20897.5 -1604.59 -50774.7 -7.42194 
135 1 6.69711 5.79218 2.96137 6.01025 -164800 -120826 -40257 248.806 14312.3 -13677.8 -7.41565 
136 1 7.34019 4.52816 2.96099 6.01217 -171666 -126321 34730 -4714.33 14911.9 -42298.7 -7.42096 
137 1 6.56792 3.33904 2.94769 6.01567 -143362 -137553 -33275 16049.9 -941.114 -13899.2 -7.4155 
138 1 7.21082 2.07514 2.94917 6.01239 -150788 -136621 18894.2 13054.5 28284 -24295.2 -7.41898 
139 1 6.43724 0.886593 2.93886 6.02017 -140267 -140118 -13096.8 32097.5 -12715 -10359.9 -7.41629 
165 1 9.00902 9.36326 2.97939 6.01773 -187967 -102196 -51710.3 -26799.6 5395.94 10147.7 -7.41522 
166 1 9.6531 8.09952 2.98654 6.00857 -165778 -119724 94257.9 -21617.4 -17050.5 -23129.7 -7.42486 
167 1 8.88339 6.90887 2.98157 6.01913 -173060 -117359 -73394 -1454 11897.4 2641.84 -7.41423 
168 1 9.52723 5.64511 2.98374 6.01385 -170480 -121515 88160.1 3660.49 5001.69 -32527.2 -7.42475 
169 1 8.75602 4.45513 2.97237 6.01576 -154267 -130734 -57025.4 26753 827.996 -10049.6 -7.41484 
170 1 9.39956 3.19143 2.97294 6.00433 -160896 -130986 50137.7 28774.2 33738.1 -30332.8 -7.42196 
171 1 8.62668 2.00225 2.96161 6.01147 -139328 -139786 -27878.8 46860.6 -8015.12 -18016.9 -7.41606 
172 1 9.26931 0.738324 2.96397 6.00368 -144199 -141289 8217.73 47808.2 37115.4 -28939.7 -7.41864 
199 1 11.0693 8.02622 2.98774 6.02526 -154970 -131209 -101239 -15383.3 6652.26 3632.1 -7.41282 
200 1 11.7144 6.76329 2.99235 6.02037 -140972 -140943 125507 37.3339 0.155722 0.66714 -7.42672 
201 1 10.9432 5.57319 2.98774 6.02526 -150405 -135802 -101239 17885.3 -6472.21 3944.78 -7.41282 
202 1 11.5878 4.31007 2.98654 6.00856 -150069 -135543 94256.8 30854 28557 -3200.37 -7.42486 
203 1 10.8154 3.12041 2.97939 6.01773 -146768 -143450 -51709.6 50435.7 -11485.9 -400.427 -7.41522 
204 1 11.4588 1.85684 2.97703 5.99962 -145939 -138886 40692.8 61517.1 46809.2 -6881.03 -7.421 
205 1 10.6852 0.667708 2.9723 6.00868 -139513 -145489 -7998.21 72484.5 -23910.6 -4872.5 -7.41751 
367 2 0.251411 8.62087 6.43901 6.01215 -133433 -164506 34729.6 17082.6 44088.1 8236.04 -7.42096 
368 2 0.380371 6.16867 6.4634 6.01935 -125276 -160485 22743.2 8900.46 25341.8 5415.77 -7.41856 
369 2 0.510423 3.71643 6.48326 6.02185 -129043 -157820 14202.9 12139.4 22275.4 5861.57 -7.41703 
370 2 0.641675 1.26442 6.49707 6.02277 -138697 -152402 -7846.38 4512.97 14828.1 -6247.21 -7.41562 
371 2 -7.20002e-07 1.58697e-06 6.4999 6.0308 -145202 -145194 -12481.2 -10.4519 0.278289 -0.348336 -7.41536 
396 2 2.3132 9.9582 6.42627 6.00815 -106859 -184204 48498.9 24844.1 43169.8 26777.3 -7.42194 
397 2 1.66762 8.69596 6.43863 6.01024 -132024 -153477 -40256.2 19259 19001.6 -5556.58 -7.41565 
398 2 2.44055 7.50732 6.44836 6.01486 -106079 -179867 12096.5 18055 37273 14705.6 -7.41876 
399 2 1.79648 6.24432 6.46149 6.02139 -132551 -150913 -21910.7 8879 5868.42 -4506.54 -7.41601 
400 2 2.56992 5.05597 6.46845 6.02191 -113519 -169975 3263.31 13953.4 15923.9 10447.9 -7.417 
401 2 1.92647 3.7926 6.4797 6.02184 -138293 -150351 201.534 4842.15 11009.5 -12930.7 -7.41654 
402 2 2.70025 2.60445 6.48346 6.02261 -127707 -165424 -6123.45 7415.46 9197.12 -4650.83 -7.41601 
403 2 2.0576 1.34065 6.49192 6.02243 -141394 -148299 2481.35 -9183.27 16472.2 -19633.6 -7.41622 
404 2 2.83177 0.152628 6.48965 6.01887 -144187 -147216 -1419.63 -2662.86 -2927.89 -24211.1 -7.41614 
429 2 3.72966 10.0334 6.42665 6.00725 -101340 -190423 -28623.5 33852.2 12561.3 -22155.8 -7.41649 
430 2 4.50291 8.84502 6.43201 6.00747 -83584.5 -198821 8346.95 34827.1 32561.3 20563.4 -7.4186 
431 2 3.85682 7.5831 6.44344 6.00751 -110541 -173624 -12883.7 20802.9 11950.3 -29415.2 -7.41715 
432 2 4.63033 6.3948 6.44831 6.01347 -100297 -176928 -14892.2 23183.5 23560.8 3532.18 -7.41661 
433 2 3.98605 5.13189 6.46095 6.01786 -127643 -154959 7278.85 4461.3 2324.13 -24049.7 -7.4177 
434 2 4.75944 3.94341 6.46368 6.02207 -124028 -159617 -22877.7 9290.27 9834.85 1085.85 -7.4157 
435 2 4.11624 2.67988 6.47417 6.02175 -138280 -145540 21699.5 -13316.7 13970 -16464.5 -7.41783 
436 2 4.89002 1.49152 6.47312 6.02457 -138312 -150385 -14656.6 -6504.2 -1121.68 -6479 -7.41598 
437 2 4.24763 0.227551 6.47968 6.02314 -144510 -143886 5698.29 -26277.3 12384.7 -10258.7 -7.41669 
463 2 5.91945 8.92069 6.42759 6.00171 -86051.3 -199858 14338.9 32772.6 -1977.92 -45643.6 -7.4191 
464 2 6.6927 7.73224 6.42805 6.01369 -90156 -194775 -28337.9 30943.1 14713.2 5757.99 -7.41628 
465 2 6.04658 6.47035 6.43802 6.00448 -113821 -174624 24258.7 8646.48 6771.27 -48190.4 -7.41979 
466 2 6.81954 5.28153 6.43949 6.01115 -112261 -168036 -38771.1 11903.8 15199.5 -7245.62 -7.41548 
467 2 6.1754 4.01854 6.4518 6.01544 -141109 -150131 25121.5 -13407.7 16828.6 -31298.5 -7.4195 
468 2 6.94861 2.82978 6.45163 6.01635 -133167 -149256 -33783.1 -7669.22 7838.69 -10870.3 -7.41562 
469 2 6.30586 1.56596 6.46115 6.01963 -145963 -138326 13493.7 -31308.1 22843.4 -16015.6 -7.41811 
470 2 7.07963 0.377444 6.45626 6.01607 -140551 -141476 -11102.4 -21757.5 -13712.5 -13761.4 -7.41683 
496 2 8.75607 9.0684 6.42034 6.01381 -109651 -183498 -52215.5 28150.6 -4718.2 15481.1 -7.41529 
497 2 8.10918 7.80691 6.4196 6.00197 -101336 -185429 65048 12030 -7028.57 -40806 -7.42287 
498 2 8.8814 6.61752 6.41854 6.02323 -109719 -178106 -72694.4 9158.98 5056.81 5791.18 -7.41418 
499 2 8.23567 5.35546 6.42667 6.01112 -129268 -168101 57016.8 -15110.4 24420 -34261.1 -7.42273 
500 2 9.00844 4.16627 6.42747 6.01413 -124441 -162978 -57784.8 -12905.5 2505.46 -12985.4 -7.4149 
501 2 8.36447 2.90317 6.43802 6.01258 -145670 -148372 29725.8 -37394.7 38502.4 -30325 -7.42058 
502 2 9.13793 1.71432 6.43613 6.00667 -136689 -150962 -28725.2 -38791.8 -7161.53 -25910.4 -7.41638 
503 2 8.49548 0.450387 6.44323 6.01206 -140382 -139798 356.043 -53270.2 27395.6 -23520.2 -7.4179 
529 2 10.1725 9.14295 6.41699 6.00927 -117952 -171974 82083.8 20252.6 -31397.3 -24033.5 -7.42425 
530 2 10.9435 7.95297 6.41226 6.02432 -135358 -151267 -101357 14648.4 3691.99 7856.22 -7.41283 
531 2 10.2977 6.6907 6.41017 6.01534 -125714 -159126 112623 -4776.91 6222.48 -14754.1 -7.42604 
532 2 11.0695 5.50087 6.41226 6.02433 -134626 -151990 -101357 -14074 -8650.34 -731.184 -7.41283 
533 2 10.4245 4.2382 6.41699 6.00925 -140736 -149091 82084.5 -33671.5 36511.7 -15173.2 -7.42425 
534 2 11.1973 3.04878 6.42034 6.01381 -140728 -152419 -52214.8 -45891.7 -11048.1 -11826 -7.41529 
535 2 10.5539 1.78531 6.42605 6.00402 -142767 -142552 34586.7 -62390.9 45618.3 -14582.5 -7.42062 
536 2 11.3275 0.596255 6.42622 6.00633 -140203 -148297 -6871.51 -71055.8 -26408.7 -15365 -7.41769 
198 1 11.8396 9.21651 2.98374 6.01384 -136813 -155143 88159.3 -22903.5 -30670.8 11932.5 -7.42475 
231 1 13.2559 9.14221 2.98157 6.01912 -130111 -160333 -73392.5 -23591.3 -3661.2 -11624.4 -7.41423 
232 1 13.9022 7.8803 2.98654 6.00855 -112528 -173098 94256.5 -9024.28 -11505.7 26331.7 -7.42487 
233 1 13.1306 6.69047 2.98774 6.02526 -123956 -162358 -101237 -2667.47 -180.098 -7577.57 -7.41282 
234 1 13.7763 5.42827 2.98374 6.01385 -130631 -161316 88157.8 19594.6 25669.3 20595.9 -7.42475 
235 1 13.0038 4.2388 2.98157 6.01912 -132448 -157927 -73392.6 24704.7 -8235.93 8983.18 -7.41423 
236 1 13.6481 2.97581 2.97373 6.00811 -143240 -147846 48499.1 46051.6 44774.1 23998.1 -7.42194 
237 1 12.8747 1.78672 2.97335 6.00722 -138885 -152860 -28623.4 55345.9 -12906.7 21956.6 -7.41649 
238 1 13.5173 0.522874 2.96799 6.00747 -139816 -142591 8347.21 67369.9 34089.2 17918 -7.4186 
264 1 16.0913 8.99518 2.97702 5.9996 -87354.3 -197407 40692.6 -27630.1 -17444.7 43979 -7.421 
265 1 15.3187 7.80622 2.97939 6.01774 -100541 -189638 -51709.3 -23858.7 6090.3 -9746.62 -7.41522 
266 1 15.9651 6.54454 2.97294 6.00434 -113613 -178274 50136.3 -1347.9 9400.62 44384.7 -7.42196 
267 1 15.1925 5.35537 2.97237 6.01574 -113335 -171609 -57024.3 -3329.39 8289.42 5742.66 -7.41484 
268 1 15.8372 4.09271 2.96099 6.01215 -141825 -156103 34729.3 22131.4 29175.4 34063.9 -7.42096 
269 1 15.064 2.90378 2.96137 6.01022 -131503 -154012 -40256.4 18794.6 4689.09 19233.7 -7.41565 
270 1 15.707 1.64008 2.95164 6.01487 -145670 -140165 12096.9 41096.8 31371 24925.8 -7.41876 
271 1 14.9332 0.451446 2.95656 6.0075 -139846 -144239 -12884.4 37699.4 -19498.3 25056 -7.41715 
296 1 18.2814 10.108 2.97378 6.00629 -84715.5 -203811 -6872.06 -39162.9 102.971 30553 -7.41769 
297 1 17.5079 8.91984 2.9723 6.00868 -81209.7 -203811 -7998.86 -38844.4 16175.4 -18270.6 -7.41751 
298 1 18.1547 7.65829 2.96397 6.00369 -100540 -184848 8217.03 -22682.3 6504.7 46613 -7.41864 
299 1 17.3814 6.4698 2.96161 6.01148 -99109.1 -179938 -27878.5 -23620.5 19610.9 2067.71 -7.41606 
300 1 18.0262 5.20718 2.94917 6.0124 -128944 -158471 18893.7 -345.711 6898.62 36641.9 -7.41898 
301 1 17.2531 4.01846 2.94769 6.01568 -125083 -155783 -33274.6 -5598.61 12507.6 6134.63 -7.4155 
302 1 17.8963 2.75492 2.9366 6.01936 -144004 -141771 22743.3 19705.3 17360.7 19239.3 -7.41856 
303 1 17.1228 1.56636 2.93851 6.02139 -138634 -144852 -21910.9 12365.3 -968.339 7334.57 -7.41601 
304 1 17.7652 0.302364 2.93155 6.0219 -143769 -139739 3263.84 31485.8 17010 8565.88 -7.417 
329 1 19.6979 10.0326 2.97395 6.00399 -88662.8 -196696 34588.1 -31016.8 35438.7 -32215 -7.42062 
330 1 20.3444 8.77083 2.96387 6.00667 -113666 -173948 -28726.2 -25709.2 18858.1 19155.9 -7.41638 
331 1 19.5711 7.58249 2.95677 6.01207 -93801.1 -186335 355.763 -26361.7 34066.2 -11965.2 -7.41789 
332 1 20.2158 6.31986 2.94374 6.01605 -122301 -159578 -11102.5 -11288.1 5060.81 18755.7 -7.41683 
333 1 19.4423 5.13151 2.93886 6.02019 -112391 -168014 -13096.2 -15947.8 15329.9 -5831.9 -7.41629 
334 1 20.0859 3.86822 2.9273 6.02135 -133453 -150319 12709.5 915.099 7400.43 17251.6 -7.41744 
335 1 19.3122 2.67991 2.92541 6.02546 -130940 -159863 -16658.7 -3141.41 4569.98 2154.57 -7.41576 
336 1 19.955 1.41617 2.91674 6.02187 -140141 -146845 14202.5 18649.5 16214.5 16360 -7.41703 
337 1 19.181 0.227928 2.9203 6.02182 -143120 -145469 201.325 7611.77 -5693.59 16000.1 -7.41654 
356 1 22.5326 9.88467 2.97253 6.01416 -142137 -145394 -57784.5 -23301.8 12498.3 4321.94 -7.4149 
357 1 21.7607 8.69542 2.96198 6.01258 -115341 -178667 29726.1 -19753.9 45512.9 -18181.4 -7.42058 
358 1 22.4051 7.43255 2.94837 6.01632 -138505 -143907 -33782.8 -10892.2 13332.9 -1354.02 -7.41562 
359 1 21.632 6.24401 2.93885 6.01964 -113085 -171233 13493.8 -12301.2 25291 -11775.8 -7.41811 
360 1 22.2754 4.98064 2.92688 6.02456 -141638 -147085 -14656.4 -8530.63 5050.24 4209.73 -7.41599 
361 1 21.502 3.79233 2.92032 6.02314 -121304 -167130 5698.17 -12823.9 15077 -5596.19 -7.41669 
362 1 22.145 2.5287 2.91035 6.0189 -144070 -147235 -1420 -2634.67 19503.7 14641.1 -7.41614 
363 1 21.371 1.34073 2.90798 6.0191 -135546 -157905 -6562.4 -3251.33 7786.92 16225 -7.4158 
364 1 22.0129 0.0765028 2.90293 6.02274 -145059 -146022 -7846.56 8250.15 2004.23 15964.6 -7.41562 
562 2 13.0046 9.28962 6.41854 6.02324 -168847 -119013 -72692.7 25133.6 2486.95 -7275.85 -7.41418 
563 2 12.3598 8.02646 6.41017 6.01533 -146649 -138190 112622 16760.2 -15889.2 1988.59 -7.42604 
564 2 13.1301 6.83606 6.41226 6.02433 -159932 -126749 -101356 -339.738 4958.27 -7125.76 -7.41283 
565 2 12.4856 5.57275 6.41017 6.01533 -154821 -129993 112621 -12144.9 9666.25 12767.4 -7.42604 
566 2 13.2571 4.38276 6.41854 6.02324 -153169 -134681 -72692.8 -34059.4 -7543.87 1484.46 -7.41418 
567 2 12.6132 3.11931 6.4196 6.00199 -153919 -132793 65046.2 -42534.1 38853.7 14316.9 -7.42287 
568 2 13.3861 1.92993 6.42805 6.01371 -141809 -143052 -28337.6 -60775 -12343.2 9863.58 -7.41628 
569 2 12.7435 0.666053 6.42759 6.00172 -143041 -142853 14338 -65595.6 40517.1 21109.5 -7.4191 
595 2 14.4208 9.36368 6.4196 6.00197 -174837 -111867 65046.5 30249.8 -31825.2 26490.3 -7.42287 
596 2 15.1898 8.17272 6.42034 6.01383 -189368 -103785 -52214.3 18018.6 15766.2 -3654.36 -7.41529 
597 2 14.5461 6.90875 6.41699 6.00926 -176111 -113807 82082.8 13111.2 -5115.27 39207.9 -7.42425 
598 2 15.3164 5.71841 6.42747 6.01416 -164633 -122839 -57783.6 -10022.7 9992.91 8663.64 -7.4149 
599 2 14.673 4.45457 6.42667 6.01114 -171421 -126000 57015 -9396.63 17461.2 38279.6 -7.42273 
600 2 15.445 3.26513 6.43949 6.01117 -143880 -136510 -38770.2 -30037.6 -1325.51 16786.3 -7.41548 
601 2 14.802 2.00132 6.43802 6.00451 -151924 -136526 24257.5 -30672.8 38348 29959.3 -7.41979 
602 2 15.5755 0.812586 6.44831 6.01345 -137680 -139549 -14892.1 -44775.2 -14839.4 18638 -7.41661 
628 2 17.2486 9.51178 6.42622 6.00632 -207908 -80680 -6870.84 32059.9 26511.6 -15188 -7.41769 
629 2 16.6057 8.24726 6.42605 6.004 -196641 -88735.3 34586.6 31126.7 -10179.5 46797.7 -7.42062 
630 2 17.3751 7.05652 6.43614 6.00668 -181092 -106500 -28725.1 13330.6 26019.3 6752.86 -7.41638 
631 2 16.7323 5.79226 6.43802 6.01257 -179994 -114000 29724.9 17412.5 7011.17 48506.1 -7.42058 
632 2 17.5038 4.60278 6.45163 6.01633 -151943 -130547 -33782.5 -3062.65 5494.24 12223.4 -7.41562 
633 2 16.8609 3.33878 6.4518 6.01544 -159505 -131893 25121.2 2728.59 18690 30223 -7.4195 
634 2 17.6339 2.15009 6.46368 6.02208 -142685 -140998 -22877.4 -19972.4 -5857.64 7974.32 -7.4157 
635 2 16.9914 0.886079 6.46095 6.01785 -144234 -138320 7278.73 -14064.3 19665.2 14037.2 -7.4177 
661 2 18.6644 9.58755 6.4277 6.00867 -206823 -78194.8 -7998.76 33599.3 -7734.73 23142.8 -7.41751 
662 2 19.4335 8.39662 6.43603 6.00367 -183432 -101990 8217.88 25166.4 43620.6 -17673.6 -7.41864 
663 2 18.791 7.13211 6.44323 6.01206 -186140 -94210.1 355.253 26865.2 6670.67 35485.6 -7.4179 
664 2 19.5621 5.94242 6.45626 6.01605 -160080 -121931 -11102.1 10582.6 18772.8 -4994.38 -7.41683 
665 2 18.9197 4.67805 6.46115 6.01963 -167335 -116895 13493.2 18958.1 2447.48 27789.9 -7.4181 
666 2 19.692 3.48912 6.47312 6.02456 -153075 -135624 -14655.8 -1897.09 6171.73 2268.16 -7.41598 
667 2 19.0498 2.22483 6.47417 6.02172 -155196 -128557 21699.3 3479.75 7273.6 20330.7 -7.41783 
668 2 19.8231 1.03626 6.48346 6.02259 -149627 -143586 -6123.03 -20039 -570.879 10290.8 -7.41601 
694 2 21.4928 9.73597 6.42706 6.0043 -163372 -128581 50138.8 27201.1 43138.1 -14050 -7.42196 
695 2 20.8494 8.47205 6.43839 6.01149 -180236 -98817 -27879.4 23146.9 11596.5 15948.9 -7.41605 
696 2 21.6205 7.28232 6.45083 6.01241 -151417 -135934 18894.3 12559.7 35182.7 -12347.1 -7.41898 
697 2 20.9779 6.01811 6.46114 6.02018 -167950 -112484 -13097.1 16155.6 2614.24 16191.6 -7.41629 
698 2 21.7502 4.82909 6.47271 6.02131 -145270 -138429 12710.4 7796.91 18640.5 -2217.06 -7.41744 
699 2 21.1079 3.56478 6.47968 6.02313 -166799 -121594 5698.01 13403.3 2692.12 15854.6 -7.41669 
700 2 21.8807 2.37608 6.48965 6.01891 -148720 -142570 -1419.83 71.9508 22431.7 9569.96 -7.41614 
701 2 21.2389 1.11161 6.49192 6.02244 -154576 -135108 2480.37 1632.55 8766.55 24081.8 -7.41623 
725 2 22.909 9.8105 6.42763 6.01571 -159871 -125118 -57025 23640.7 9117.73 4307.04 -7.41484 
726 2 23.0365 7.3575 6.45231 6.0157 -152943 -128027 -33274.7 10589.8 11566.6 7765.02 -7.4155 
727 2 23.1661 4.90495 6.47459 6.02543 -155232 -135371 -16659.3 11009.3 4150.91 2879.32 -7.41576 
728 2 23.2965 2.45247 6.49202 6.01915 -155150 -138215 -6562.76 8057.83 17944.7 -1370.04 -7.4158 
24 1 1.02911 19.6238 2.97241 6.00173 -143014 -142876 14337.9 65613.2 -40517.2 21109.8 -7.4191 
25 1 1.67172 18.36 2.97195 6.01369 -141818 -143091 -28338 60793.1 12343.1 9863.73 -7.41628 
26 1 0.898799 17.1706 2.9804 6.00195 -153889 -132836 65047.7 42536.3 -38853 14317.4 -7.42287 
27 1 1.54274 15.9071 2.98146 6.02323 -153081 -134724 -72693 34069.8 7543.3 1484.43 -7.41418 
28 1 0.771201 14.7171 2.98983 6.0153 -154869 -129988 112622 12147.2 -9666.05 12766.9 -7.42603 
29 1 1.41572 13.4538 2.98774 6.02431 -159935 -126745 -101356 328.549 -4957.96 -7125.53 -7.41283 
30 1 0.645453 12.2634 2.98983 6.01531 -146757 -138199 112622 -16742.2 15888.8 1988.27 -7.42604 
31 1 1.29024 11.0003 2.98146 6.02323 -168860 -118966 -72693.4 -25100.6 -2486.64 -7275.43 -7.41418 
58 1 3.86116 19.4773 2.95169 6.01351 -137684 -139493 -14892.4 44828.1 14839.4 18637.6 -7.41661 
59 1 3.0876 18.2886 2.96198 6.00448 -151902 -136510 24257.2 30710.7 -38348.3 29959 -7.41979 
60 1 3.73067 17.0248 2.96051 6.01121 -143869 -136545 -38770.2 30036.8 1325.28 16786.6 -7.41548 
61 1 2.95858 15.8353 2.97333 6.01112 -171336 -126077 57015.3 9413.51 -17461.8 38279.7 -7.42273 
62 1 3.60206 14.5715 2.97253 6.01415 -164653 -122891 -57783.3 10030 -9992.38 8663.64 -7.4149 
63 1 2.83176 13.3811 2.98301 6.00925 -176106 -113784 82083.8 -13134.2 5115.2 39207.7 -7.42425 
64 1 3.47544 12.1172 2.97966 6.0138 -189295 -103772 -52214.7 -18066.4 -15766.3 -3654.39 -7.41529 
65 1 2.70639 10.9262 2.9804 6.00195 -174854 -111815 65047.3 -30302 31824.8 26490.6 -7.42287 
91 1 5.27701 19.4038 2.93905 6.01784 -144283 -138356 7278.54 14100.1 -19664.9 14036.8 -7.4177 
92 1 5.91956 18.1398 2.93632 6.02205 -142777 -141003 -22877 20001.7 5858.39 7974.12 -7.4157 
93 1 5.14652 16.9511 2.9482 6.01543 -159525 -131848 25121.3 -2737.77 -18690.1 30222.8 -7.4195 
94 1 5.78942 15.6871 2.94837 6.01636 -151907 -130488 -33782.5 3065.52 -5494.51 12223.1 -7.41562 
95 1 5.01792 14.4976 2.96198 6.01256 -180003 -113993 29724.5 -17406.2 -7010.82 48506.2 -7.42059 
96 1 5.66077 13.2334 2.96386 6.00669 -181078 -106541 -28725.2 -13364 -26019.1 6753.08 -7.41638 
97 1 4.89133 12.0426 2.97395 6.00401 -196568 -88787 34586 -31154.1 10179.1 46798 -7.42062 
98 1 5.53425 10.7781 2.97378 6.0063 -207871 -80704.1 -6870.83 -32062.6 -26511.9 -15187.8 -7.41769 
124 1 8.10873 19.2536 2.91654 6.02257 -149547 -143616 -6123.06 20031.6 570.373 10290.9 -7.41601 
125 1 7.33541 18.0651 2.92583 6.02171 -155273 -128537 21699.6 -3502.72 -7272.91 20330.5 -7.41783 
126 1 7.97767 16.8008 2.92688 6.02454 -153076 -135598 -14655.6 1872.46 -6171.61 2268.08 -7.41599 
127 1 7.20529 15.6118 2.93885 6.01963 -167334 -116929 13493.3 -18947.9 -2447.74 27790 -7.41811 
128 1 7.84769 14.3475 2.94374 6.01607 -160134 -121904 -11101.6 -10523.2 -18773.3 -4995.37 -7.41683 
129 1 7.07659 13.1578 2.95677 6.01207 -186090 -94139.4 354.789 -26862.6 -6670.94 35484.7 -7.4179 
130 1 7.71913 11.8933 2.96397 6.0037 -183399 -101989 8217.64 -25191.8 -43620.5 -17673.4 -7.41864 
131 1 6.95001 10.7023 2.9723 6.00869 -206759 -78198.6 -7999.39 -33632.7 7734.71 23143 -7.41751 
157 1 9.52454 19.1783 2.90808 6.02243 -154452 -135070 2480.45 -1613.4 -8767.27 24081.6 -7.41622 
158 1 10.1663 17.9138 2.91035 6.0189 -148758 -142571 -1419.48 -87.2473 -22431.7 9570.07 -7.41614 
159 1 9.3935 16.7251 2.92032 6.02312 -166813 -121663 5697.74 -13387.5 -2691.99 15854.9 -7.41669 
160 1 10.0358 15.4608 2.92729 6.02129 -145276 -138489 12710.7 -7761.14 -18640.7 -2216.89 -7.41744 
161 1 9.26357 14.2718 2.93886 6.02017 -168012 -112468 -13097 -16155.7 -2613.85 16191.4 -7.41629 
162 1 9.90609 13.0076 2.94917 6.0124 -151433 -135947 18894.4 -12584.7 -35182.2 -12346.8 -7.41898 
163 1 9.13504 11.8178 2.96161 6.01151 -180239 -98899.8 -27879.4 -23152.6 -11596.6 15949.8 -7.41606 
164 1 9.77846 10.5539 2.97294 6.00433 -163419 -128641 50136.6 -27211.9 -43138.6 -14050.2 -7.42196 
191 1 11.5822 17.8374 2.90798 6.01909 -155152 -138243 -6562.43 -8021.8 -17944.9 -1370.13 -7.4158 
193 1 11.4518 15.3849 2.92541 6.02541 -155224 -135430 -16659.2 -10995.3 -4151.1 2879.9 -7.41576 
195 1 11.3221 12.9324 2.94769 6.01569 -152958 -127974 -33274.8 -10599.7 -11566.3 7764.62 -7.4155 
197 1 11.1946 10.4794 2.97237 6.01573 -159915 -125085 -57024.9 -23669.9 -9117.93 4306.87 -7.41484 
365 2 5.57446e-07 13.5266 6.40765 6.02037 -140983 -140931 125507 -15.0491 -0.360562 0.422447 -7.42672 
366 2 0.125191 11.0734 6.41626 6.01382 -136796 -155184 88160.3 22891.9 30670.3 11932.7 -7.42475 
388 2 1.80291 19.767 6.43201 6.00747 -139725 -142585 8346.98 -67388.9 -34088.6 17918.2 -7.4186 
389 2 1.16038 18.5032 6.42665 6.00726 -138922 -152841 -28624.8 -55331.5 12906.3 21956.8 -7.41649 
390 2 1.93373 17.3141 6.42627 6.00814 -143293 -147818 48499.1 -46045.8 -44774.6 23998.5 -7.42194 
391 2 1.28942 16.0511 6.41843 6.01914 -132500 -157919 -73392.9 -24688.4 8235.89 8982.99 -7.41423 
392 2 2.06195 14.8616 6.41626 6.01382 -130688 -161290 88159 -19549.1 -25669.4 20595.7 -7.42475 
393 2 1.41625 13.5994 6.41226 6.02527 -123950 -162332 -101238 2698.67 180.118 -7577.39 -7.41282 
394 2 2.18784 12.4096 6.41346 6.00854 -112485 -173126 94257.3 9036.76 11505.6 26331.4 -7.42486 
395 2 1.54157 11.1477 6.41843 6.01911 -130059 -160349 -73393 23558.6 3660.87 -11624.2 -7.41423 
421 2 3.21881 19.8384 6.44344 6.00749 -139797 -144252 -12884.8 -37673.4 19498.7 25055.8 -7.41715 
422 2 3.99258 18.6498 6.44836 6.01486 -145823 -140228 12096.9 -41078.3 -31372.5 24925.8 -7.41876 
423 2 3.34965 17.3861 6.43863 6.01025 -131531 -154023 -40256.2 -18814.3 -4689.73 19233.5 -7.41565 
424 2 4.12278 16.1972 6.43901 6.01214 -141764 -156084 34728.9 -22130 -29175 34063.6 -7.42096 
425 2 3.47811 14.9345 6.42763 6.01577 -113373 -171609 -57024.2 3357.44 -8289.29 5742.92 -7.41484 
426 2 4.25074 13.7454 6.42706 6.00433 -113608 -178298 50136.3 1355.68 -9400.46 44384.7 -7.42196 
427 2 3.60431 12.4837 6.42061 6.01772 -100499 -189624 -51709.5 23863.2 -6090.11 -9746.73 -7.41522 
428 2 4.37691 11.2947 6.42298 5.99962 -87383.2 -197390 40692.9 27619.3 17444.8 43978.9 -7.421 
454 2 6.05082 19.9875 6.46845 6.02189 -143744 -139738 3263.61 -31463.9 -17009.7 8566.26 -7.417 
455 2 5.4084 18.7235 6.46149 6.02138 -138736 -144793 -21910.8 -12382 967.309 7334.72 -7.41601 
456 2 6.18197 17.535 6.4634 6.01934 -143902 -141736 22743.3 -19728.3 -17360 19239.3 -7.41856 
457 2 5.53873 16.2714 6.45231 6.01567 -125017 -155770 -33274.5 5584.11 -12506.9 6134.56 -7.4155 
458 2 6.31185 15.0827 6.45083 6.01239 -128849 -158432 18894 371.012 -6897.52 36642.3 -7.41898 
459 2 5.66704 13.8201 6.43839 6.01148 -99077.8 -179968 -27878.6 23662.5 -19610.5 2067.92 -7.41606 
460 2 6.44031 12.6316 6.43603 6.00368 -100532 -184904 8216.51 22702.7 -6504.78 46612.3 -7.41864 
461 2 5.7935 11.3701 6.4277 6.00869 -81221.3 -203810 -7997.76 38855.1 -16175.8 -18270.5 -7.41751 
462 2 6.567 10.1819 6.42622 6.00634 -84759.4 -203841 -6872.23 39105.9 -103.424 30553.3 -7.41769 
487 2 7.46665 20.062 6.4797 6.02184 -143105 -145483 201.514 -7625.09 5693.72 16000.2 -7.41654 
488 2 8.24065 18.8737 6.48326 6.02186 -140048 -146789 14202.6 -18612.2 -16214 16360.3 -7.41703 
489 2 7.59788 17.61 6.47459 6.02543 -130825 -159782 -16658.8 3142.25 -4569.34 2154.75 -7.41576 
490 2 8.37155 16.4217 6.47271 6.0213 -133429 -150313 12709.7 -939.918 -7400.24 17251.5 -7.41744 
491 2 7.72794 15.1584 6.46114 6.02017 -112364 -168107 -13095.9 16000.4 -15329.4 -5832.4 -7.41629 
492 2 8.50143 13.97 6.45626 6.01606 -122368 -159671 -11102.7 11309.2 -5061.02 18755 -7.41683 
493 2 7.85668 12.7074 6.44323 6.01205 -93841.8 -186368 355.915 26330.7 -34066.9 -11965.5 -7.4179 
494 2 8.63005 11.5191 6.43613 6.00668 -113748 -173916 -28726 25715.9 -18858.1 19156.4 -7.41638 
495 2 7.98357 10.2573 6.42605 6.00402 -88665.6 -196676 34587 30991.9 -35438.9 -32214.5 -7.42062 
520 2 10.2985 20.2134 6.49708 6.02278 -145027 -145994 -7846.82 -8250.41 -2003.69 15964.3 -7.41562 
521 2 9.65658 18.9492 6.49202 6.01914 -135439 -157875 -6562.69 3277.29 -7786.25 16225.2 -7.4158 
522 2 10.4307 17.7612 6.48965 6.01889 -144080 -147238 -1420.43 2625.03 -19503.7 14640.7 -7.41614 
523 2 9.78763 16.4976 6.47968 6.02312 -121316 -167144 5698.93 12836.9 -15077 -5596.45 -7.41669 
524 2 10.5611 15.3092 6.47312 6.02454 -141733 -147016 -14656.2 8578.16 -5049.72 4210.47 -7.41598 
525 2 9.91761 14.0459 6.46115 6.01963 -113090 -171115 13494.2 12314.5 -25291 -11774.6 -7.4181 
526 2 10.6907 12.8573 6.45163 6.01634 -138558 -143836 -33782.8 10872.5 -13332.8 -1353.18 -7.41562 
527 2 10.0464 11.5945 6.43802 6.01259 -115411 -178629 29724.8 19749.5 -45513.1 -18181 -7.42058 
528 2 10.8182 10.4052 6.42747 6.01419 -142072 -145413 -57784.2 23271.8 -12499.2 4321.83 -7.4149 
190 1 12.3561 19.0255 2.90293 6.02275 -138574 -152355 -7846.33 -4498.46 -14827.6 -6247.53 -7.41562 
192 1 12.2248 16.5735 2.91674 6.02187 -129007 -157886 14202.5 -12150.4 -22275.3 5861.83 -7.41703 
194 1 12.0947 14.1212 2.9366 6.01935 -125316 -160504 22743.2 -8886.83 -25341.8 5415.69 -7.41856 
196 1 11.9658 11.669 2.96099 6.01214 -133461 -164446 34729.9 -17104.7 -44087.9 8234.9 -7.42096 
222 1 14.5462 20.1373 2.91035 6.0189 -144264 -147148 -1419.53 2661.08 2927.31 -24211.2 -7.41614 
223 1 13.772 18.9492 2.90808 6.02245 -141312 -148306 2481.43 9237.38 -16471.9 -19633.3 -7.41622 
224 1 14.4146 17.6854 2.91654 6.0226 -127719 -165462 -6123.45 -7407.18 -9197.14 -4650.8 -7.41601 
225 1 13.6408 16.4973 2.9203 6.02183 -138269 -150356 201.727 -4871.95 -11009.5 -12930.7 -7.41654 
226 1 14.2843 15.2339 2.93155 6.02189 -113445 -170009 3263.03 -13981.8 -15923.1 10447.9 -7.417 
227 1 13.5109 14.0456 2.93851 6.02137 -132585 -150969 -21910.9 -8892.64 -5868.23 -4505.85 -7.41601 
228 1 14.1549 12.7826 2.95164 6.01485 -106004 -179916 12096.7 -18066 -37272.6 14706.1 -7.41876 
229 1 13.382 11.5939 2.96137 6.01022 -132049 -153477 -40256.4 -19282.6 -19001.5 -5556.54 -7.41565 
230 1 14.0276 10.3317 2.97373 6.00813 -106936 -184191 48499.7 -24880.5 -43169.6 26777 -7.42194 
255 1 15.962 20.0623 2.92032 6.02311 -144634 -143849 5698.27 26308.6 -12385.5 -10258.2 -7.41669 
256 1 16.6044 18.7984 2.92688 6.02454 -138370 -150393 -14656 6553.55 1121.07 -6478.37 -7.41598 
257 1 15.8306 17.61 2.92583 6.02169 -138258 -145525 21699.7 13307.5 -13970 -16464.4 -7.41783 
258 1 16.4738 16.3465 2.93632 6.02207 -124145 -159604 -22877.9 -9289.46 -9835.68 1085.49 -7.4157 
259 1 15.7004 15.158 2.93905 6.01783 -127559 -155002 7278.77 -4443.77 -2323.71 -24049.3 -7.4177 
260 1 16.3447 13.8951 2.95169 6.01348 -100293 -176976 -14893 -23168 -23560.8 3532.67 -7.41661 
261 1 15.5712 12.7068 2.95656 6.00751 -110439 -173610 -12884 -20816.2 -11949.7 -29415 -7.41715 
262 1 16.2173 11.4449 2.96799 6.00746 -83516.4 -198814 8347.23 -34850.2 -32560.8 20563.4 -7.4186 
263 1 15.444 10.2565 2.97335 6.00722 -101382 -190427 -28623.4 -33876.3 -12561 -22155.4 -7.41649 
288 1 18.794 19.9124 2.94374 6.01608 -140534 -141357 -11102.5 21791.6 13712.6 -13760.9 -7.41683 
289 1 18.0202 18.7239 2.93885 6.01965 -145989 -138240 13493.3 31398.6 -22843.7 -16014.7 -7.4181 
290 1 18.663 17.4601 2.94837 6.01634 -133233 -149246 -33782.8 7682.84 -7839.3 -10870.1 -7.41562 
291 1 17.8898 16.2713 2.9482 6.01541 -141275 -150170 25121.5 13432.6 -16830.1 -31298 -7.4195 
292 1 18.5339 15.0084 2.96051 6.01116 -112274 -168089 -38770.8 -11882.5 -15199.7 -7245.34 -7.41548 
293 1 17.761 13.8195 2.96198 6.00447 -113827 -174655 24258.6 -8649.68 -6771.46 -48190.3 -7.41979 
294 1 18.4071 12.5577 2.97195 6.01369 -90099.3 -194810 -28338.6 -30936.7 -14712.9 5758.23 -7.41628 
295 1 17.6338 11.3692 2.97241 6.00172 -85944.7 -199850 14338.9 -32808.4 1978.32 -45643.5 -7.4191 
321 1 20.2098 19.8395 2.95677 6.01207 -140423 -139876 355.415 53313.4 -27396 -23519.4 -7.4179 
322 1 20.8523 18.5756 2.96387 6.00669 -136661 -151038 -28725.9 38842.6 7160.89 -25909.4 -7.41638 
323 1 20.0788 17.3867 2.96198 6.01259 -145701 -148345 29725.7 37388.9 -38502.7 -30325.1 -7.42058 
324 1 20.7228 16.1236 2.97253 6.01418 -124514 -162907 -57784.6 12898 -2506.06 -12985.5 -7.4149 
325 1 19.95 14.9344 2.97333 6.01113 -129266 -168017 57017.3 15107 -24420 -34261.5 -7.42273 